
Host: Roberts-MacBook-Pro-5.local

Timers On : Sun Apr 14 16:48:33 2024
Timers Off: Sun Apr 14 16:48:45 2024

Wall Time:       11.66 seconds

                                                       Time (seconds)
Module                                       User      System        Wall        Calls

--------------------------------------------------------------------------------------

**************************************************************************************
