      -----------------------------------------------------------      
     |                   =====================                   |     
     |                           x T B                           |     
     |                   =====================                   |     
     |                         S. Grimme                         |     
     |          Mulliken Center for Theoretical Chemistry        |     
     |                    University of Bonn                     |     
      -----------------------------------------------------------      

   * xtb version 6.3.3 (7355c4f) compiled by 'conda@14e9545d6667' on 2020-09-17

   xtb is free software: you can redistribute it and/or modify it under
   the terms of the GNU Lesser General Public License as published by
   the Free Software Foundation, either version 3 of the License, or
   (at your option) any later version.
   
   xtb is distributed in the hope that it will be useful,
   but WITHOUT ANY WARRANTY; without even the implied warranty of
   MERCHANTABILITY or FITNESS FOR A PARTICULAR PURPOSE.  See the
   GNU Lesser General Public License for more details.
   
   Cite this work as:
   * C. Bannwarth, E. Caldeweyher, S. Ehlert, A. Hansen, P. Pracht,
     J. Seibert, S. Spicher, S. Grimme, WIREs Comput. Mol. Sci., 2020,
     e01493. DOI: 10.1002/wcms.1493
   
   for GFN2-xTB:
   * S. Grimme, C. Bannwarth, P. Shushkov, J. Chem. Theory Comput., 2017,
     13, 1989-2009. DOI: 10.1021/acs.jctc.7b00118
   for GFN1-xTB:
   * C. Bannwarth, S. Ehlert and S. Grimme., J. Chem. Theory Comput., 2019,
     15, 1652-1671. DOI: 10.1021/acs.jctc.8b01176
   for GFN0-xTB:
   * P. Pracht, E. Caldeweyher, S. Ehlert, S. Grimme, ChemRxiv, 2019, preprint.
     DOI: 10.26434/chemrxiv.8326202.v1
   for GFN-FF:
   * S. Spicher and S. Grimme, Angew. Chem. Int. Ed., 2020, 59, 15665-15673.
     DOI: 10.1002/anie.202004239
   
   for DFT-D4:
   * E. Caldeweyher, C. Bannwarth and S. Grimme, J. Chem. Phys., 2017,
     147, 034112. DOI: 10.1063/1.4993215
   * E. Caldeweyher, S. Ehlert, A. Hansen, H. Neugebauer, S. Spicher,
     C. Bannwarth and S. Grimme, J. Chem. Phys., 2019, 150, 154122.
     DOI: 10.1063/1.5090222
   * E. Caldeweyher, J.-M. Mewes, S. Ehlert and S. Grimme, Phys. Chem. Chem. Phys.
     2020, 22, 8499-8512. DOI: 10.1039/D0CP00502A
   
   for sTDA-xTB:
   * S. Grimme and C. Bannwarth, J. Chem. Phys., 2016, 145, 054103.
     DOI: 10.1063/1.4959605
   
   in the mass-spec context:
   * V. Asgeirsson, C. Bauer and S. Grimme, Chem. Sci., 2017, 8, 4879.
     DOI: 10.1039/c7sc00601b
   * J. Koopman and S. Grimme, ACS Omega 2019, 4, 12, 15120-15133.
     DOI: 10.1021/acsomega.9b02011
   
   for metadynamics refer to:
   * S. Grimme, J. Chem. Theory Comput., 2019, 155, 2847-2862
     DOI: 10.1021/acs.jctc.9b00143
   
   with help from (in alphabetical order)
   C. Bannwarth, F. Bohle, G. Brandenburg, E. Caldeweyher, M. Checinski,
   S. Dohm, S. Ehlert, S. Ehrlich, F. März, H. Neugebauer, J. Pisarek,
   P. Pracht, P. Shushkov, and S. Spicher.
   
 * started run on 2022/09/06 at 17:48:43.390     

           -------------------------------------------------
          |                Calculation Setup                |
           -------------------------------------------------

          program call               : xtb /home/svss/Project-DBcg-Debug/aqme2_20220329/20220906-example-end-to-end/End-to-end_Workflows/End-to-end workflow 2, SN2 PES/AQME inputs/CSEARCH/crest_xyz/TS3_crest/TS3_crest.xyz --opt --input constrain1.inp -c 0 --uhf 0 -P 8
          hostname                   : fireball.chem.colostate.edu
          coordinate file            : /home/svss/Project-DBcg-Debug/aqme2_20220329/20220906-example-end-to-end/End-to-end_Workflows/End-to-end workflow 2, SN2 PES/AQME inputs/CSEARCH/crest_xyz/TS3_crest/TS3_crest.xyz
          omp threads                :                     8
          number of atoms            :                    24
          number of electrons        :                    54
          charge                     :                     0
          spin                       :                   0.0
          first test random number   :      0.53038741090059

   ID    Z sym.   atoms
    1    6 C      1-10
    2    1 H      11-24
constraining bond 4 6 to    2.3500000 Å, actual value:    5.1860379 Å
constraining bond 1 7 to    2.3500000 Å, actual value:    5.3047030 Å
constraining bond 1 2 to    1.3210000 Å, actual value:    1.3207994 Å
constraining bond 2 3 to    1.4550000 Å, actual value:    1.4550178 Å
constraining bond 3 4 to    1.3200000 Å, actual value:    1.3200981 Å
constraining bond 4 5 to    1.4870000 Å, actual value:    1.4866532 Å
constraining bond 5 1 to    1.4940000 Å, actual value:    1.4936965 Å
constraining bond 6 7 to    1.3300000 Å, actual value:    1.3300976 Å
constraining bond 7 8 to    1.4890000 Å, actual value:    1.4894826 Å
constraining bond 8 9 to    1.5190000 Å, actual value:    1.5191961 Å
constraining bond 9 10 to    1.5160000 Å, actual value:    1.5158560 Å
constraining bond 10 6 to    1.4880000 Å, actual value:    1.4882233 Å
constraining bond 1 11 to    1.0860000 Å, actual value:    1.0855823 Å
constraining bond 2 12 to    1.0820000 Å, actual value:    1.0822129 Å
constraining bond 3 13 to    1.0800000 Å, actual value:    1.0804174 Å
constraining bond 4 14 to    1.0840000 Å, actual value:    1.0840589 Å
constraining bond 5 15 to    1.1090000 Å, actual value:    1.1086546 Å
constraining bond 5 16 to    1.1080000 Å, actual value:    1.1077332 Å
constraining bond 6 17 to    1.0830000 Å, actual value:    1.0830288 Å
constraining bond 7 18 to    1.0840000 Å, actual value:    1.0835006 Å
constraining bond 8 19 to    1.1050000 Å, actual value:    1.1049218 Å
constraining bond 8 20 to    1.1150000 Å, actual value:    1.1154296 Å
constraining bond 9 21 to    1.1080000 Å, actual value:    1.1077518 Å
constraining bond 9 22 to    1.1170000 Å, actual value:    1.1171816 Å
constraining bond 10 23 to    1.1140000 Å, actual value:    1.1142412 Å
constraining bond 10 24 to    1.1060000 Å, actual value:    1.1058907 Å

molecular fragmentation (1/2 indicates fragments):
111112222211111122222222
# atoms in fragment 1/2:    11    13
 fragment masses (1/2) :       66.10       68.12
CMA distance (Bohr)    :   9.416
constraining FC (au)   :  0.5000
########################################################################
[WARNING] Please study the warnings concerning your input carefully
-1- prog_main_parseArguments: Process number higher than OMP_NUM_THREADS, I hope you know what you are doing.
########################################################################

           -------------------------------------------------
          |                 G F N 2 - x T B                 |
           -------------------------------------------------

        Reference                      10.1021/acs.jctc.8b01176
      * Hamiltonian:
        H0-scaling (s, p, d)           1.850000    2.230000    2.230000
        zeta-weighting                 0.500000
      * Dispersion:
        s8                             2.700000
        a1                             0.520000
        a2                             5.000000
        s9                             5.000000
      * Repulsion:
        kExp                           1.500000    1.000000
        rExp                           1.000000
      * Coulomb:
        alpha                          2.000000
        third order                    shell-resolved
        anisotropic                    true
        a3                             3.000000
        a5                             4.000000
        cn-shift                       1.200000
        cn-exp                         4.000000
        max-rad                        5.000000


          ...................................................
          :                      SETUP                      :
          :.................................................:
          :  # basis functions                  54          :
          :  # atomic orbitals                  54          :
          :  # shells                           34          :
          :  # electrons                        54          :
          :  max. iterations                   250          :
          :  Hamiltonian                  GFN2-xTB          :
          :  restarted?                      false          :
          :  GBSA solvation                  false          :
          :  PC potential                    false          :
          :  electronic temp.          300.0000000     K    :
          :  accuracy                    1.0000000          :
          :  -> integral cutoff          0.2500000E+02      :
          :  -> integral neglect         0.1000000E-07      :
          :  -> SCF convergence          0.1000000E-05 Eh   :
          :  -> wf. convergence          0.1000000E-03 e    :
          :  Broyden damping             0.4000000          :
          ...................................................

 iter      E             dE          RMSdq      gap      omega  full diag
   1    -28.9154835 -0.289155E+02  0.379E+00    4.00       0.0  T
   2    -28.9614527 -0.459692E-01  0.222E+00    4.03       1.0  T
   3    -28.9614026  0.501159E-04  0.728E-01    4.04       1.0  T
   4    -28.9610143  0.388310E-03  0.313E-01    4.01       1.0  T
   5    -28.9628860 -0.187165E-02  0.635E-02    4.02       1.0  T
   6    -28.9629144 -0.284251E-04  0.314E-02    4.02       1.0  T
   7    -28.9629147 -0.296222E-06  0.524E-03    4.02       3.9  T
   8    -28.9629149 -0.251318E-06  0.277E-03    4.02       7.4  T
   9    -28.9629150 -0.116033E-06  0.782E-04    4.02      26.1  T
  10    -28.9629150 -0.271737E-08  0.317E-04    4.02      64.3  T

   *** convergence criteria satisfied after 10 iterations ***

         #    Occupation            Energy/Eh            Energy/eV
      -------------------------------------------------------------
         1        2.0000           -0.6435915             -17.5130
       ...           ...                  ...                  ...
        21        2.0000           -0.4376317             -11.9086
        22        2.0000           -0.4365460             -11.8790
        23        2.0000           -0.4338877             -11.8067
        24        2.0000           -0.4316315             -11.7453
        25        2.0000           -0.4264978             -11.6056
        26        2.0000           -0.3774583             -10.2712
        27        2.0000           -0.3763123             -10.2400 (HOMO)
        28                         -0.2286153              -6.2209 (LUMO)
        29                         -0.1951766              -5.3110
        30                         -0.1371383              -3.7317
        31                          0.1016110               2.7650
        32                          0.1020702               2.7775
       ...                                ...                  ...
        54                          0.7371009              20.0575
      -------------------------------------------------------------
                  HL-Gap            0.1476970 Eh            4.0190 eV
             Fermi-level           -0.3024638 Eh           -8.2305 eV

 SCC (total)                   0 d,  0 h,  0 min,  0.296 sec
 SCC setup                      ...        0 min,  0.009 sec (  2.923%)
 Dispersion                     ...        0 min,  0.000 sec (  0.125%)
 classical contributions        ...        0 min,  0.000 sec (  0.050%)
 integral evaluation            ...        0 min,  0.008 sec (  2.735%)
 iterations                     ...        0 min,  0.268 sec ( 90.695%)
 molecular gradient             ...        0 min,  0.008 sec (  2.840%)
 printout                       ...        0 min,  0.001 sec (  0.460%)

         :::::::::::::::::::::::::::::::::::::::::::::::::::::
         ::                     SUMMARY                     ::
         :::::::::::::::::::::::::::::::::::::::::::::::::::::
         :: total energy               1.483754354421 Eh    ::
         :: gradient norm             10.927426946631 Eh/a0 ::
         :: HOMO-LUMO gap              4.019041141567 eV    ::
         ::.................................................::
         :: SCC energy               -28.962915048441 Eh    ::
         :: -> isotropic ES            0.003629525169 Eh    ::
         :: -> anisotropic ES          0.006048487501 Eh    ::
         :: -> anisotropic XC          0.022020477648 Eh    ::
         :: -> dispersion             -0.015234278658 Eh    ::
         :: repulsion energy           0.496959606498 Eh    ::
         :: add. restraining          29.949413392868 Eh    ::
         :: total charge              -0.000000000000 e     ::
         :::::::::::::::::::::::::::::::::::::::::::::::::::::

      ----------------------------------------------------------- 
     |                   =====================                   |
     |                        A N C O P T                        |
     |                   =====================                   |
     |               Approximate Normal Coordinate               |
     |                Rational Function Optimizer                |
      ----------------------------------------------------------- 

          ...................................................
          :                      SETUP                      :
          :.................................................:
          :   optimization level            normal          :
          :   max. optcycles                   200          :
          :   ANC micro-cycles                  20          :
          :   degrees of freedom                66          :
          :.................................................:
          :   RF solver                   davidson          :
          :   write xtbopt.log                true          :
          :   linear?                        false          :
          :   energy convergence         0.5000000E-05 Eh   :
          :   grad. convergence          0.1000000E-02 Eh/α :
          :   maximium RF displ.         1.0000000          :
          :   Hlow (freq-cutoff)         0.1000000E-01      :
          :   Hmax (freq-cutoff)         5.0000000          :
          :   S6 in model hess.         20.0000000          :
          ...................................................

generating ANC from model Hessian ...
Using Lindh-Hessian (1995)
 Shifting diagonal of input Hessian by    9.5752957159301131E-003
 Lowest  eigenvalues of input Hessian
    0.000000    0.000000    0.000000    0.000000    0.000000    0.000000
    0.010000    0.015282    0.016715    0.018378    0.022723    0.025711
    0.026764    0.028440    0.033745    0.037128    0.041624    0.054740
 Highest eigenvalues
    4.379262    4.475246    4.660130    5.062939    5.211303    5.373682


........................................................................
.............................. CYCLE    1 ..............................
........................................................................
   1    -28.9629150 -0.289629E+02  0.163E-04    4.02       0.0  T
   2    -28.9629150 -0.109175E-10  0.150E-04    4.02     136.3  T
   3    -28.9629150 -0.398220E-09  0.380E-05    4.02     536.5  T
     SCC iter.                  ...        0 min,  0.081 sec
     gradient                   ...        0 min,  0.019 sec
 * total energy  :     1.4837544 Eh     change       -0.4248157E-09 Eh
   gradient norm :    10.9274271 Eh/α   predicted     0.0000000E+00 (-100.00%)
   displ. norm   :     0.8988789 α      lambda       -0.9789360E+01
   maximum displ.:     0.6175594 α      in ANC's #48, #47, #65, ...

........................................................................
.............................. CYCLE    2 ..............................
........................................................................
   1    -28.8958007 -0.288958E+02  0.944E-01    3.53       0.0  T
   2    -28.8966124 -0.811744E-03  0.577E-01    3.42       1.0  T
   3    -28.8951430  0.146944E-02  0.374E-01    3.40       1.0  T
   4    -28.8970502 -0.190721E-02  0.998E-02    3.40       1.0  T
   5    -28.8972279 -0.177713E-03  0.294E-02    3.40       1.0  T
   6    -28.8972395 -0.115828E-04  0.109E-02    3.40       1.9  T
   7    -28.8972401 -0.610585E-06  0.396E-03    3.40       5.2  T
   8    -28.8972402 -0.422482E-07  0.159E-03    3.40      12.8  T
   9    -28.8972402 -0.334462E-07  0.474E-04    3.40      43.1  T
  10    -28.8972402 -0.610768E-09  0.103E-04    3.40     198.5  T
     SCC iter.                  ...        0 min,  0.214 sec
     gradient                   ...        0 min,  0.008 sec
 * total energy  :    -7.3666374 Eh     change       -0.8850392E+01 Eh
   gradient norm :     8.7910701 Eh/α   predicted    -0.8849504E+01 (  -0.01%)
   displ. norm   :     0.8823625 α      lambda       -0.7730222E+01
   maximum displ.:     0.6158957 α      in ANC's #48, #47, #49, ...

........................................................................
.............................. CYCLE    3 ..............................
........................................................................
   1    -28.6971021 -0.286971E+02  0.118E+00    2.15       0.0  T
   2    -28.6976905 -0.588442E-03  0.699E-01    2.05       1.0  T
   3    -28.6946383  0.305221E-02  0.600E-01    2.03       1.0  T
   4    -28.6986821 -0.404380E-02  0.240E-01    2.02       1.0  T
   5    -28.6998402 -0.115804E-02  0.463E-02    2.02       1.0  T
   6    -28.6998738 -0.336555E-04  0.175E-02    2.02       1.2  T
   7    -28.6998751 -0.125017E-05  0.874E-03    2.02       2.3  T
   8    -28.6998759 -0.804163E-06  0.365E-03    2.02       5.6  T
   9    -28.6998760 -0.138212E-06  0.880E-04    2.02      23.2  T
  10    -28.6998760 -0.159538E-08  0.255E-04    2.02      80.0  T
     SCC iter.                  ...        0 min,  0.206 sec
     gradient                   ...        0 min,  0.008 sec
 * total energy  :   -14.2060456 Eh     change       -0.6839408E+01 Eh
   gradient norm :     6.7233392 Eh/α   predicted    -0.6874347E+01 (   0.51%)
   displ. norm   :     0.8557356 α      lambda       -0.5716128E+01
   maximum displ.:     0.5860127 α      in ANC's #48, #47, #49, ...

........................................................................
.............................. CYCLE    4 ..............................
........................................................................
   1    -28.4388864 -0.284389E+02  0.123E+00    0.88       0.0  T
   2    -28.4380982  0.788179E-03  0.739E-01    0.78       1.0  T
   3    -28.4354210  0.267727E-02  0.697E-01    0.76       1.0  T
   4    -28.4419381 -0.651716E-02  0.185E-01    0.76       1.0  T
   5    -28.4425056 -0.567499E-03  0.944E-02    0.76       1.0  T
   6    -28.4426825 -0.176921E-03  0.366E-02    0.76       1.0  T
   7    -28.4426989 -0.163856E-04  0.177E-02    0.76       1.2  T
   8    -28.4427023 -0.336913E-05  0.806E-03    0.76       2.5  T
   9    -28.4427030 -0.736060E-06  0.184E-03    0.76      11.1  T
  10    -28.4427030 -0.937452E-08  0.697E-04    0.76      29.3  T
  11    -28.4427030 -0.231366E-08  0.179E-04    0.76     114.2  T
     SCC iter.                  ...        0 min,  0.244 sec
     gradient                   ...        0 min,  0.008 sec
 * total energy  :   -19.1098480 Eh     change       -0.4903802E+01 Eh
   gradient norm :     4.7634017 Eh/α   predicted    -0.4950978E+01 (   0.96%)
   displ. norm   :     0.8297731 α      lambda       -0.3874956E+01
   maximum displ.:     0.5169833 α      in ANC's #48, #47, #46, ...

........................................................................
.............................. CYCLE    5 ..............................
........................................................................
   1    -28.2058257 -0.282058E+02  0.118E+00    0.15       0.0  T
   2    -28.1928138  0.130119E-01  0.105E+00    0.82       1.0  T
   3    -28.1858273  0.698653E-02  0.122E+00    0.43       1.0  T
   4    -28.1849197  0.907617E-03  0.910E-01    0.11       1.0  T
   5    -28.2123446 -0.274250E-01  0.321E-01    0.65       1.0  T
   6    -28.2143144 -0.196975E-02  0.200E-01    0.50       1.0  T
   7    -28.2146272 -0.312835E-03  0.158E-01    0.43       1.0  T
   8    -28.2150454 -0.418177E-03  0.103E-01    0.31       1.0  T
   9    -28.2149586  0.868107E-04  0.943E-02    0.20       1.0  T
  10    -28.2152382 -0.279689E-03  0.548E-02    0.28       1.0  T
  11    -28.2153110 -0.727686E-04  0.306E-02    0.26       1.0  T
  12    -28.2153468 -0.357759E-04  0.211E-03    0.24       9.7  T
  13    -28.2153440  0.282461E-05  0.827E-03    0.24       2.5  T
  14    -28.2153468 -0.279908E-05  0.150E-03    0.24      13.6  T
  15    -28.2153468 -0.200339E-07  0.129E-03    0.24      15.9  T
  16    -28.2153469 -0.647462E-07  0.314E-04    0.24      64.9  T
  17    -28.2153469 -0.380088E-08  0.495E-05    0.24     412.8  T
     SCC iter.                  ...        0 min,  0.423 sec
     gradient                   ...        0 min,  0.010 sec
 * total energy  :   -22.3500981 Eh     change       -0.3240250E+01 Eh
   gradient norm :     3.1323654 Eh/α   predicted    -0.3271481E+01 (   0.96%)
   displ. norm   :     0.8347086 α      lambda       -0.2498699E+01
   maximum displ.:     0.4070878 α      in ANC's #48, #8, #47, ...

........................................................................
.............................. CYCLE    6 ..............................
........................................................................
   1    -28.0278811 -0.280279E+02  0.139E+00    0.04       0.0  T
   2    -27.0707994  0.957082E+00  0.408E+00    0.65       1.0  T
   3    -28.0683025 -0.997503E+00  0.905E-01    0.62       1.0  T
   4    -28.0703845 -0.208195E-02  0.873E-01    0.44       1.0  T
   5    -28.0617968  0.858771E-02  0.102E+00    0.41       1.0  T
   6    -28.0837313 -0.219345E-01  0.362E-01    0.39       1.0  T
   7    -28.0847721 -0.104083E-02  0.259E-01    0.21       1.0  T
   8    -28.0860182 -0.124612E-02  0.158E-01    0.19       1.0  T
   9    -28.0866023 -0.584070E-03  0.158E-01    0.14       1.0  T
  10    -28.0865569  0.453587E-04  0.892E-02    0.17       1.0  T
  11    -28.0867652 -0.208268E-03  0.620E-02    0.16       1.0  T
  12    -28.0868643 -0.991076E-04  0.458E-02    0.15       1.0  T
  13    -28.0868793 -0.150433E-04  0.258E-02    0.15       1.0  T
  14    -28.0868890 -0.963881E-05  0.482E-03    0.15       4.2  T
  15    -28.0868898 -0.854746E-06  0.332E-03    0.15       6.2  T
  16    -28.0868899 -0.341746E-07  0.139E-03    0.15      14.6  T
  17    -28.0868899 -0.815891E-07  0.398E-04    0.15      51.3  T
  18    -28.0868900 -0.165684E-08  0.211E-04    0.15      96.9  T
     SCC iter.                  ...        0 min,  0.590 sec
     gradient                   ...        0 min,  0.021 sec
 * total energy  :   -24.4542721 Eh     change       -0.2104174E+01 Eh
   gradient norm :     2.0533914 Eh/α   predicted    -0.2119819E+01 (   0.74%)
   displ. norm   :     0.8543071 α      lambda       -0.1671346E+01
   maximum displ.:     0.3823828 α      in ANC's #8, #48, #41, ...

........................................................................
.............................. CYCLE    7 ..............................
........................................................................
   1    -28.0569100 -0.280569E+02  0.797E-01    0.22       0.0  T
   2    -28.0535243  0.338569E-02  0.665E-01    0.60       1.0  T
   3    -28.0580590 -0.453469E-02  0.583E-01    0.33       1.0  T
   4    -28.0514060  0.665301E-02  0.675E-01    0.24       1.0  T
   5    -28.0630260 -0.116201E-01  0.261E-01    0.36       1.0  T
   6    -28.0642427 -0.121673E-02  0.128E-01    0.28       1.0  T
   7    -28.0647882 -0.545410E-03  0.710E-02    0.34       1.0  T
   8    -28.0649459 -0.157743E-03  0.320E-02    0.32       1.0  T
   9    -28.0649788 -0.329015E-04  0.102E-02    0.31       2.0  T
  10    -28.0649780  0.817198E-06  0.808E-03    0.31       2.5  T
  11    -28.0649803 -0.234556E-05  0.353E-03    0.31       5.8  T
  12    -28.0649801  0.210706E-06  0.348E-03    0.32       5.9  T
  13    -28.0649806 -0.480467E-06  0.721E-04    0.31      28.3  T
  14    -28.0649806 -0.163990E-07  0.128E-04    0.31     159.8  T
     SCC iter.                  ...        0 min,  0.374 sec
     gradient                   ...        0 min,  0.024 sec
 * total energy  :   -25.8864894 Eh     change       -0.1432217E+01 Eh
   gradient norm :     1.4084648 Eh/α   predicted    -0.1445580E+01 (   0.93%)
   displ. norm   :     0.8299596 α      lambda       -0.1133592E+01
   maximum displ.:     0.3838860 α      in ANC's #8, #41, #17, ...

........................................................................
.............................. CYCLE    8 ..............................
........................................................................
   1    -28.0928512 -0.280929E+02  0.620E-01    0.48       0.0  T
   2    -28.0891893  0.366190E-02  0.543E-01    0.81       1.0  T
   3    -28.0958027 -0.661342E-02  0.313E-01    0.55       1.0  T
   4    -28.0956513  0.151373E-03  0.297E-01    0.60       1.0  T
   5    -28.0970489 -0.139753E-02  0.178E-01    0.61       1.0  T
   6    -28.0977676 -0.718743E-03  0.570E-02    0.59       1.0  T
   7    -28.0978680 -0.100378E-03  0.174E-02    0.61       1.2  T
   8    -28.0978752 -0.725951E-05  0.798E-03    0.60       2.6  T
   9    -28.0978753 -0.523844E-07  0.479E-03    0.60       4.3  T
  10    -28.0978758 -0.481740E-06  0.198E-03    0.60      10.3  T
  11    -28.0978758 -0.413687E-07  0.856E-04    0.60      23.8  T
  12    -28.0978758 -0.712862E-08  0.437E-04    0.60      46.7  T
     SCC iter.                  ...        0 min,  0.311 sec
     gradient                   ...        0 min,  0.016 sec
 * total energy  :   -26.8389443 Eh     change       -0.9524550E+00 Eh
   gradient norm :     0.9382492 Eh/α   predicted    -0.9572234E+00 (   0.50%)
   displ. norm   :     0.7829282 α      lambda       -0.7153006E+00
   maximum displ.:     0.3465257 α      in ANC's #8, #17, #41, ...

........................................................................
.............................. CYCLE    9 ..............................
........................................................................
   1    -28.1594811 -0.281595E+02  0.519E-01    0.80       0.0  T
   2    -28.1549075  0.457356E-02  0.500E-01    1.06       1.0  T
   3    -28.1606406 -0.573309E-02  0.287E-01    0.84       1.0  T
   4    -28.1612820 -0.641369E-03  0.208E-01    0.87       1.0  T
   5    -28.1621030 -0.821011E-03  0.977E-02    0.90       1.0  T
   6    -28.1623457 -0.242687E-03  0.287E-02    0.90       1.0  T
   7    -28.1623588 -0.131725E-04  0.109E-02    0.89       1.9  T
   8    -28.1623598 -0.966828E-06  0.600E-03    0.89       3.4  T
   9    -28.1623603 -0.473150E-06  0.254E-03    0.89       8.0  T
  10    -28.1623604 -0.814817E-07  0.118E-03    0.89      17.2  T
  11    -28.1623604 -0.917436E-08  0.511E-04    0.89      40.0  T
  12    -28.1623604 -0.412071E-08  0.202E-04    0.89     100.9  T
     SCC iter.                  ...        0 min,  0.278 sec
     gradient                   ...        0 min,  0.007 sec
 * total energy  :   -27.4148314 Eh     change       -0.5758871E+00 Eh
   gradient norm :     0.5713621 Eh/α   predicted    -0.5768814E+00 (   0.17%)
   displ. norm   :     0.7330815 α      lambda       -0.3954413E+00
   maximum displ.:     0.3308335 α      in ANC's #17, #8, #18, ...

........................................................................
.............................. CYCLE   10 ..............................
........................................................................
   1    -28.2648156 -0.282648E+02  0.535E-01    1.16       0.0  T
   2    -28.2608434  0.397219E-02  0.503E-01    1.27       1.0  T
   3    -28.2659838 -0.514046E-02  0.290E-01    1.14       1.0  T
   4    -28.2667593 -0.775445E-03  0.159E-01    1.22       1.0  T
   5    -28.2673434 -0.584159E-03  0.589E-02    1.19       1.0  T
   6    -28.2674323 -0.888325E-04  0.195E-02    1.18       1.0  T
   7    -28.2674378 -0.550350E-05  0.977E-03    1.19       2.1  T
   8    -28.2674390 -0.126942E-05  0.269E-03    1.18       7.6  T
   9    -28.2674391 -0.263521E-07  0.172E-03    1.18      11.9  T
  10    -28.2674391 -0.333207E-07  0.525E-04    1.18      38.9  T
  11    -28.2674391 -0.454408E-08  0.248E-04    1.18      82.2  T
     SCC iter.                  ...        0 min,  0.365 sec
     gradient                   ...        0 min,  0.020 sec
 * total energy  :   -27.7225186 Eh     change       -0.3076872E+00 Eh
   gradient norm :     0.3579144 Eh/α   predicted    -0.3039773E+00 (  -1.21%)
   displ. norm   :     0.7313628 α      lambda       -0.2197276E+00
   maximum displ.:     0.4169584 α      in ANC's #17, #8, #18, ...

........................................................................
.............................. CYCLE   11 ..............................
........................................................................
   1    -28.3806779 -0.283807E+02  0.677E-01    1.36       0.0  T
   2    -28.3748187  0.585925E-02  0.626E-01    1.50       1.0  T
   3    -28.3844061 -0.958745E-02  0.327E-01    1.34       1.0  T
   4    -28.3855013 -0.109514E-02  0.150E-01    1.43       1.0  T
   5    -28.3860063 -0.505042E-03  0.502E-02    1.39       1.0  T
   6    -28.3860598 -0.534953E-04  0.167E-02    1.39       1.2  T
   7    -28.3860640 -0.423240E-05  0.734E-03    1.39       2.8  T
   8    -28.3860646 -0.625442E-06  0.382E-03    1.39       5.3  T
   9    -28.3860648 -0.202975E-06  0.967E-04    1.39      21.1  T
  10    -28.3860649 -0.587054E-08  0.405E-04    1.39      50.4  T
     SCC iter.                  ...        0 min,  0.227 sec
     gradient                   ...        0 min,  0.030 sec
 * total energy  :   -27.8913504 Eh     change       -0.1688318E+00 Eh
   gradient norm :     0.3675510 Eh/α   predicted    -0.1686289E+00 (  -0.12%)
   displ. norm   :     0.8855419 α      lambda       -0.2447923E+00
   maximum displ.:     0.4488996 α      in ANC's #17, #31, #8, ...

........................................................................
.............................. CYCLE   12 ..............................
........................................................................
   1    -28.5384984 -0.285385E+02  0.113E+00    1.64       0.0  T
   2    -28.5423046 -0.380615E-02  0.740E-01    1.59       1.0  T
   3    -28.5456621 -0.335749E-02  0.522E-01    1.58       1.0  T
   4    -28.5466343 -0.972255E-03  0.318E-01    1.58       1.0  T
   5    -28.5488340 -0.219962E-02  0.459E-02    1.57       1.0  T
   6    -28.5488705 -0.365461E-04  0.245E-02    1.56       1.0  T
   7    -28.5488790 -0.847977E-05  0.103E-02    1.57       2.0  T
   8    -28.5488802 -0.126076E-05  0.402E-03    1.57       5.1  T
   9    -28.5488805 -0.248311E-06  0.174E-03    1.57      11.7  T
  10    -28.5488805 -0.213331E-07  0.757E-04    1.57      27.0  T
  11    -28.5488805 -0.353155E-08  0.205E-04    1.57      99.7  T
     SCC iter.                  ...        0 min,  0.260 sec
     gradient                   ...        0 min,  0.017 sec
 * total energy  :   -27.9795831 Eh     change       -0.8823274E-01 Eh
   gradient norm :     0.6804126 Eh/α   predicted    -0.2183772E+00 ( 147.50%)
   displ. norm   :     0.6447645 α      lambda       -0.2180708E+00
   maximum displ.:     0.3229659 α      in ANC's #17, #8, #41, ...

........................................................................
.............................. CYCLE   13 ..............................
........................................................................
   1    -28.6539614 -0.286540E+02  0.741E-01    1.98       0.0  T
   2    -28.6545728 -0.611417E-03  0.456E-01    1.98       1.0  T
   3    -28.6534981  0.107478E-02  0.359E-01    2.00       1.0  T
   4    -28.6556714 -0.217335E-02  0.813E-02    1.98       1.0  T
   5    -28.6557571 -0.856772E-04  0.419E-02    1.99       1.0  T
   6    -28.6557973 -0.402540E-04  0.135E-02    1.99       1.5  T
   7    -28.6557993 -0.194328E-05  0.526E-03    1.99       3.9  T
   8    -28.6557994 -0.121884E-06  0.194E-03    1.99      10.5  T
   9    -28.6557994 -0.282802E-07  0.900E-04    1.99      22.7  T
  10    -28.6557994 -0.126055E-08  0.406E-04    1.99      50.3  T
     SCC iter.                  ...        0 min,  0.234 sec
     gradient                   ...        0 min,  0.008 sec
 * total energy  :   -28.1402758 Eh     change       -0.1606927E+00 Eh
   gradient norm :     0.3116369 Eh/α   predicted    -0.1543636E+00 (  -3.94%)
   displ. norm   :     0.7822794 α      lambda       -0.1506870E+00
   maximum displ.:     0.4807346 α      in ANC's #17, #8, #6, ...

........................................................................
.............................. CYCLE   14 ..............................
........................................................................
   1    -28.7226050 -0.287226E+02  0.821E-01    2.44       0.0  T
   2    -28.7237646 -0.115958E-02  0.498E-01    2.47       1.0  T
   3    -28.7230660  0.698641E-03  0.353E-01    2.44       1.0  T
   4    -28.7243243 -0.125837E-02  0.112E-01    2.45       1.0  T
   5    -28.7245907 -0.266379E-03  0.281E-02    2.45       1.0  T
   6    -28.7246058 -0.151000E-04  0.112E-02    2.45       1.8  T
   7    -28.7246069 -0.110811E-05  0.563E-03    2.45       3.6  T
   8    -28.7246073 -0.369129E-06  0.168E-03    2.45      12.1  T
   9    -28.7246073 -0.291136E-07  0.793E-04    2.45      25.7  T
  10    -28.7246073 -0.238159E-08  0.317E-04    2.45      64.5  T
     SCC iter.                  ...        0 min,  0.331 sec
     gradient                   ...        0 min,  0.017 sec
 * total energy  :   -28.2321372 Eh     change       -0.9186144E-01 Eh
   gradient norm :     0.3969465 Eh/α   predicted    -0.1214508E+00 (  32.21%)
   displ. norm   :     0.7751097 α      lambda       -0.1500900E+00
   maximum displ.:     0.3804561 α      in ANC's #8, #17, #18, ...

........................................................................
.............................. CYCLE   15 ..............................
........................................................................
   1    -28.7522631 -0.287523E+02  0.805E-01    2.67       0.0  T
   2    -28.7534998 -0.123665E-02  0.524E-01    2.84       1.0  T
   3    -28.7547584 -0.125861E-02  0.341E-01    2.74       1.0  T
   4    -28.7556005 -0.842093E-03  0.935E-02    2.77       1.0  T
   5    -28.7557646 -0.164071E-03  0.194E-02    2.78       1.1  T
   6    -28.7557696 -0.498587E-05  0.991E-03    2.78       2.1  T
   7    -28.7557699 -0.385351E-06  0.395E-03    2.78       5.2  T
   8    -28.7557703 -0.319063E-06  0.134E-03    2.78      15.2  T
   9    -28.7557703 -0.708771E-08  0.803E-04    2.78      25.4  T
  10    -28.7557703 -0.117977E-07  0.224E-04    2.78      91.0  T
     SCC iter.                  ...        0 min,  0.245 sec
     gradient                   ...        0 min,  0.008 sec
 * total energy  :   -28.2661104 Eh     change       -0.3397317E-01 Eh
   gradient norm :     0.5373571 Eh/α   predicted    -0.1201317E+00 ( 253.61%)
   displ. norm   :     0.5121791 α      lambda       -0.1233239E+00
   maximum displ.:     0.2574403 α      in ANC's #17, #8, #10, ...

........................................................................
.............................. CYCLE   16 ..............................
........................................................................
   1    -28.8147561 -0.288148E+02  0.721E-01    3.16       0.0  T
   2    -28.8155558 -0.799667E-03  0.441E-01    3.06       1.0  T
   3    -28.8150131  0.542656E-03  0.306E-01    3.16       1.0  T
   4    -28.8160270 -0.101387E-02  0.873E-02    3.12       1.0  T
   5    -28.8162038 -0.176757E-03  0.135E-02    3.10       1.5  T
   6    -28.8162045 -0.740244E-06  0.720E-03    3.11       2.8  T
   7    -28.8162049 -0.354139E-06  0.364E-03    3.11       5.6  T
   8    -28.8162051 -0.195687E-06  0.868E-04    3.11      23.5  T
   9    -28.8162051 -0.372104E-08  0.376E-04    3.11      54.3  T
     SCC iter.                  ...        0 min,  0.175 sec
     gradient                   ...        0 min,  0.041 sec
 * total energy  :   -28.3336840 Eh     change       -0.6757358E-01 Eh
   gradient norm :     0.3148771 Eh/α   predicted    -0.7783754E-01 (  15.19%)
   displ. norm   :     0.5304104 α      lambda       -0.8209700E-01
   maximum displ.:     0.2352035 α      in ANC's #25, #12, #3, ...

........................................................................
.............................. CYCLE   17 ..............................
........................................................................
   1    -28.8599265 -0.288599E+02  0.515E-01    3.33       0.0  T
   2    -28.8604527 -0.526197E-03  0.287E-01    3.21       1.0  T
   3    -28.8603285  0.124229E-03  0.144E-01    3.26       1.0  T
   4    -28.8604719 -0.143422E-03  0.572E-02    3.24       1.0  T
   5    -28.8605381 -0.661592E-04  0.157E-02    3.23       1.3  T
   6    -28.8605394 -0.138039E-05  0.636E-03    3.23       3.2  T
   7    -28.8605398 -0.366767E-06  0.235E-03    3.23       8.7  T
   8    -28.8605399 -0.761052E-07  0.760E-04    3.23      26.9  T
   9    -28.8605399 -0.134906E-08  0.284E-04    3.23      71.8  T
     SCC iter.                  ...        0 min,  0.253 sec
     gradient                   ...        0 min,  0.008 sec
 * total energy  :   -28.3331307 Eh     change        0.5532917E-03 Eh
   gradient norm :     0.4409863 Eh/α   predicted    -0.5259687E-01 (*******%)
   displ. norm   :     0.5492781 α      lambda       -0.1022798E+00
   maximum displ.:     0.3431340 α      in ANC's #10, #17, #5, ...

........................................................................
.............................. CYCLE   18 ..............................
........................................................................
   1    -28.8865493 -0.288865E+02  0.425E-01    3.38       0.0  T
   2    -28.8867690 -0.219708E-03  0.247E-01    3.44       1.0  T
   3    -28.8866027  0.166338E-03  0.116E-01    3.40       1.0  T
   4    -28.8868429 -0.240269E-03  0.229E-02    3.41       1.0  T
   5    -28.8868480 -0.505742E-05  0.108E-02    3.42       1.9  T
   6    -28.8868484 -0.389049E-06  0.627E-03    3.42       3.3  T
   7    -28.8868489 -0.497099E-06  0.143E-03    3.42      14.3  T
   8    -28.8868489 -0.234213E-07  0.637E-04    3.42      32.0  T
   9    -28.8868489 -0.136954E-08  0.145E-04    3.42     140.9  T
     SCC iter.                  ...        0 min,  0.274 sec
     gradient                   ...        0 min,  0.008 sec
 * total energy  :   -28.3776219 Eh     change       -0.4449121E-01 Eh
   gradient norm :     0.2870580 Eh/α   predicted    -0.6656918E-01 (  49.62%)
   displ. norm   :     0.6274806 α      lambda       -0.8889917E-01
   maximum displ.:     0.4016215 α      in ANC's #17, #8, #41, ...

........................................................................
.............................. CYCLE   19 ..............................
........................................................................
   1    -28.8564318 -0.288564E+02  0.726E-01    3.28       0.0  T
   2    -28.8574941 -0.106233E-02  0.428E-01    3.38       1.0  T
   3    -28.8572132  0.280867E-03  0.230E-01    3.33       1.0  T
   4    -28.8576646 -0.451335E-03  0.686E-02    3.35       1.0  T
   5    -28.8577480 -0.834421E-04  0.131E-02    3.36       1.6  T
   6    -28.8577500 -0.195332E-05  0.567E-03    3.36       3.6  T
   7    -28.8577500 -0.656195E-07  0.223E-03    3.36       9.2  T
   8    -28.8577501 -0.350612E-07  0.960E-04    3.36      21.3  T
   9    -28.8577501 -0.122950E-07  0.352E-04    3.36      58.0  T
     SCC iter.                  ...        0 min,  0.191 sec
     gradient                   ...        0 min,  0.016 sec
 * total energy  :   -28.3516666 Eh     change        0.2595526E-01 Eh
   gradient norm :     0.5968687 Eh/α   predicted    -0.6195077E-01 (-338.68%)
   displ. norm   :     0.3588859 α      lambda       -0.1167846E+00
   maximum displ.:     0.1165295 α      in ANC's #17, #8, #31, ...

........................................................................
.............................. CYCLE   20 ..............................
........................................................................
   1    -28.8922589 -0.288923E+02  0.386E-01    3.59       0.0  T
   2    -28.8925683 -0.309325E-03  0.225E-01    3.52       1.0  T
   3    -28.8925076  0.606799E-04  0.111E-01    3.55       1.0  T
   4    -28.8925999 -0.922583E-04  0.364E-02    3.53       1.0  T
   5    -28.8926221 -0.222932E-04  0.816E-03    3.53       2.5  T
   6    -28.8926227 -0.542352E-06  0.377E-03    3.53       5.4  T
   7    -28.8926228 -0.733062E-07  0.174E-03    3.53      11.7  T
   8    -28.8926228 -0.435437E-07  0.579E-04    3.53      35.2  T
   9    -28.8926228 -0.308053E-08  0.268E-04    3.53      76.0  T
     SCC iter.                  ...        0 min,  0.210 sec
     gradient                   ...        0 min,  0.008 sec
 * total energy  :   -28.4061641 Eh     change       -0.5449751E-01 Eh
   gradient norm :     0.2281717 Eh/α   predicted    -0.6591313E-01 (  20.95%)
   displ. norm   :     0.5251935 α      lambda       -0.6295039E-01
   maximum displ.:     0.2507176 α      in ANC's #8, #1, #10, ...
 * RMSD in coord.:     1.9805721 α      energy gain  -0.2988992E+02 Eh

generating ANC from model Hessian ...
Using Lindh-Hessian (1995)
 Shifting diagonal of input Hessian by    4.0785918557633319E-002
 Lowest  eigenvalues of input Hessian
    0.010000    0.033241    0.034435    0.037578    0.039719    0.000000
    0.000000    0.000000    0.000000    0.000000    0.000000    0.041901
    0.044188    0.044912    0.051103    0.059241    0.063181    0.071427
 Highest eigenvalues
    4.240964    4.265818    4.436743    4.616580    4.644363    4.734841


........................................................................
.............................. CYCLE   21 ..............................
........................................................................
   1    -28.9177454 -0.289177E+02  0.518E-01    3.61       0.0  T
   2    -28.9179773 -0.231900E-03  0.310E-01    3.53       1.0  T
   3    -28.9175618  0.415454E-03  0.195E-01    3.56       1.0  T
   4    -28.9181116 -0.549802E-03  0.315E-02    3.55       1.0  T
   5    -28.9181336 -0.219100E-04  0.100E-02    3.54       2.0  T
   6    -28.9181340 -0.436511E-06  0.429E-03    3.54       4.8  T
   7    -28.9181341 -0.106843E-06  0.166E-03    3.54      12.3  T
   8    -28.9181341 -0.312093E-07  0.535E-04    3.54      38.1  T
   9    -28.9181341 -0.126136E-08  0.203E-04    3.54     100.7  T
     SCC iter.                  ...        0 min,  0.272 sec
     gradient                   ...        0 min,  0.016 sec
 * total energy  :   -28.3708574 Eh     change        0.3530675E-01 Eh
   gradient norm :     0.4802413 Eh/α   predicted     0.0000000E+00 (-100.00%)
   displ. norm   :     0.3984828 α      lambda       -0.9389279E-01
   maximum displ.:     0.2501637 α      in ANC's #1, #3, #33, ...

........................................................................
.............................. CYCLE   22 ..............................
........................................................................
   1    -28.9169827 -0.289170E+02  0.440E-01    3.54       0.0  T
   2    -28.9171986 -0.215938E-03  0.261E-01    3.64       1.0  T
   3    -28.9169559  0.242731E-03  0.171E-01    3.61       1.0  T
   4    -28.9173248 -0.368888E-03  0.253E-02    3.62       1.0  T
   5    -28.9173376 -0.127659E-04  0.816E-03    3.63       2.5  T
   6    -28.9173378 -0.235667E-06  0.397E-03    3.63       5.1  T
   7    -28.9173379 -0.144955E-06  0.168E-03    3.63      12.1  T
   8    -28.9173380 -0.324155E-07  0.494E-04    3.63      41.3  T
   9    -28.9173380 -0.556160E-09  0.232E-04    3.63      88.2  T
     SCC iter.                  ...        0 min,  0.217 sec
     gradient                   ...        0 min,  0.010 sec
 * total energy  :   -28.4271711 Eh     change       -0.5631370E-01 Eh
   gradient norm :     0.0602388 Eh/α   predicted    -0.5440099E-01 (  -3.40%)
   displ. norm   :     0.5248539 α      lambda       -0.1534949E-01
   maximum displ.:     0.3352648 α      in ANC's #1, #3, #10, ...

........................................................................
.............................. CYCLE   23 ..............................
........................................................................
   1    -28.9175610 -0.289176E+02  0.390E-01    3.73       0.0  T
   2    -28.9175935 -0.325595E-04  0.229E-01    3.75       1.0  T
   3    -28.9174185  0.175035E-03  0.991E-02    3.75       1.0  T
   4    -28.9176197 -0.201168E-03  0.928E-03    3.75       2.2  T
   5    -28.9176204 -0.731090E-06  0.428E-03    3.76       4.8  T
   6    -28.9176204 -0.292883E-07  0.195E-03    3.76      10.5  T
   7    -28.9176205 -0.464204E-07  0.779E-04    3.76      26.2  T
   8    -28.9176205 -0.496970E-08  0.305E-04    3.76      66.9  T
     SCC iter.                  ...        0 min,  0.190 sec
     gradient                   ...        0 min,  0.011 sec
 * total energy  :   -28.4344615 Eh     change       -0.7290369E-02 Eh
   gradient norm :     0.1498943 Eh/α   predicted    -0.9788919E-02 (  34.27%)
   displ. norm   :     0.6620816 α      lambda       -0.2149577E-01
   maximum displ.:     0.2965826 α      in ANC's #1, #10, #3, ...

........................................................................
.............................. CYCLE   24 ..............................
........................................................................
   1    -28.9134816 -0.289135E+02  0.480E-01    3.80       0.0  T
   2    -28.9135367 -0.551165E-04  0.283E-01    3.80       1.0  T
   3    -28.9134628  0.738954E-04  0.649E-02    3.82       1.0  T
   4    -28.9135531 -0.902285E-04  0.146E-02    3.82       1.4  T
   5    -28.9135555 -0.241444E-05  0.598E-03    3.81       3.4  T
   6    -28.9135556 -0.913097E-07  0.218E-03    3.81       9.3  T
   7    -28.9135556 -0.721221E-07  0.939E-04    3.81      21.7  T
   8    -28.9135556 -0.440672E-08  0.300E-04    3.81      68.1  T
     SCC iter.                  ...        0 min,  0.153 sec
     gradient                   ...        0 min,  0.017 sec
 * total energy  :   -28.4317563 Eh     change        0.2705178E-02 Eh
   gradient norm :     0.2142221 Eh/α   predicted    -0.1545924E-01 (-671.47%)
   displ. norm   :     0.3238249 α      lambda       -0.2481882E-01
   maximum displ.:     0.2704045 α      in ANC's #3, #1, #5, ...

........................................................................
.............................. CYCLE   25 ..............................
........................................................................
   1    -28.9350262 -0.289350E+02  0.291E-01    3.82       0.0  T
   2    -28.9350611 -0.349738E-04  0.171E-01    3.81       1.0  T
   3    -28.9350247  0.364921E-04  0.466E-02    3.81       1.0  T
   4    -28.9350671 -0.424919E-04  0.114E-02    3.80       1.8  T
   5    -28.9350694 -0.220945E-05  0.390E-03    3.80       5.2  T
   6    -28.9350694 -0.486493E-07  0.166E-03    3.80      12.3  T
   7    -28.9350694 -0.117109E-07  0.845E-04    3.80      24.1  T
   8    -28.9350694 -0.918405E-08  0.264E-04    3.80      77.4  T
     SCC iter.                  ...        0 min,  0.167 sec
     gradient                   ...        0 min,  0.029 sec
 * total energy  :   -28.4428067 Eh     change       -0.1105045E-01 Eh
   gradient norm :     0.0877771 Eh/α   predicted    -0.1371072E-01 (  24.07%)
   displ. norm   :     0.2907908 α      lambda       -0.8353188E-02
   maximum displ.:     0.2098505 α      in ANC's #1, #3, #8, ...

........................................................................
.............................. CYCLE   26 ..............................
........................................................................
   1    -28.9365780 -0.289366E+02  0.223E-01    3.83       0.0  T
   2    -28.9365890 -0.109119E-04  0.128E-01    3.84       1.0  T
   3    -28.9365323  0.566755E-04  0.635E-02    3.84       1.0  T
   4    -28.9365990 -0.667266E-04  0.542E-03    3.84       3.8  T
   5    -28.9365992 -0.150674E-06  0.323E-03    3.84       6.3  T
   6    -28.9365992 -0.175430E-07  0.131E-03    3.84      15.5  T
   7    -28.9365992 -0.296695E-07  0.468E-04    3.84      43.6  T
   8    -28.9365992 -0.176532E-08  0.153E-04    3.84     133.2  T
     SCC iter.                  ...        0 min,  0.134 sec
     gradient                   ...        0 min,  0.008 sec
 * total energy  :   -28.4463709 Eh     change       -0.3564184E-02 Eh
   gradient norm :     0.0782913 Eh/α   predicted    -0.4529794E-02 (  27.09%)
   displ. norm   :     0.2130309 α      lambda       -0.3351159E-02
   maximum displ.:     0.1302004 α      in ANC's #8, #5, #7, ...

........................................................................
.............................. CYCLE   27 ..............................
........................................................................
   1    -28.9378728 -0.289379E+02  0.104E-01    3.85       0.0  T
   2    -28.9378749 -0.208550E-05  0.608E-02    3.85       1.0  T
   3    -28.9378725  0.240653E-05  0.137E-02    3.85       1.5  T
   4    -28.9378757 -0.323319E-05  0.290E-03    3.85       7.0  T
   5    -28.9378758 -0.256616E-07  0.167E-03    3.85      12.2  T
   6    -28.9378758 -0.221715E-07  0.417E-04    3.85      48.9  T
   7    -28.9378758 -0.174715E-08  0.262E-04    3.85      77.9  T
     SCC iter.                  ...        0 min,  0.208 sec
     gradient                   ...        0 min,  0.009 sec
 * total energy  :   -28.4485174 Eh     change       -0.2146446E-02 Eh
   gradient norm :     0.0529580 Eh/α   predicted    -0.1751627E-02 ( -18.39%)
   displ. norm   :     0.3838025 α      lambda       -0.4600936E-02
   maximum displ.:     0.1692212 α      in ANC's #8, #5, #10, ...

........................................................................
.............................. CYCLE   28 ..............................
........................................................................
   1    -28.9410894 -0.289411E+02  0.164E-01    3.86       0.0  T
   2    -28.9410992 -0.979923E-05  0.971E-02    3.86       1.0  T
   3    -28.9410751  0.241266E-04  0.372E-02    3.87       1.0  T
   4    -28.9411041 -0.289665E-04  0.638E-03    3.87       3.2  T
   5    -28.9411043 -0.198104E-06  0.274E-03    3.86       7.5  T
   6    -28.9411043 -0.517587E-07  0.126E-03    3.86      16.2  T
   7    -28.9411043 -0.252300E-07  0.375E-04    3.86      54.5  T
   8    -28.9411043 -0.935181E-10  0.157E-04    3.86     130.0  T
     SCC iter.                  ...        0 min,  0.233 sec
     gradient                   ...        0 min,  0.007 sec
 * total energy  :   -28.4498954 Eh     change       -0.1377983E-02 Eh
   gradient norm :     0.0701721 Eh/α   predicted    -0.2639345E-02 (  91.54%)
   displ. norm   :     0.1709103 α      lambda       -0.2775058E-02
   maximum displ.:     0.1083117 α      in ANC's #8, #1, #4, ...

........................................................................
.............................. CYCLE   29 ..............................
........................................................................
   1    -28.9434572 -0.289435E+02  0.102E-01    3.87       0.0  T
   2    -28.9434612 -0.400237E-05  0.597E-02    3.88       1.0  T
   3    -28.9434556  0.561156E-05  0.208E-02    3.87       1.0  T
   4    -28.9434625 -0.688394E-05  0.379E-03    3.87       5.4  T
   5    -28.9434626 -0.116336E-06  0.152E-03    3.87      13.5  T
   6    -28.9434626 -0.276343E-08  0.542E-04    3.87      37.7  T
   7    -28.9434626 -0.338524E-08  0.247E-04    3.87      82.8  T
     SCC iter.                  ...        0 min,  0.291 sec
     gradient                   ...        0 min,  0.010 sec
 * total energy  :   -28.4515650 Eh     change       -0.1669672E-02 Eh
   gradient norm :     0.0264395 Eh/α   predicted    -0.1428062E-02 ( -14.47%)
   displ. norm   :     0.2588111 α      lambda       -0.1515775E-02
   maximum displ.:     0.1490522 α      in ANC's #8, #5, #7, ...

........................................................................
.............................. CYCLE   30 ..............................
........................................................................
   1    -28.9422261 -0.289422E+02  0.117E-01    3.86       0.0  T
   2    -28.9422306 -0.459264E-05  0.676E-02    3.87       1.0  T
   3    -28.9422218  0.888071E-05  0.237E-02    3.86       1.0  T
   4    -28.9422327 -0.109472E-04  0.419E-03    3.87       4.9  T
   5    -28.9422328 -0.129012E-06  0.197E-03    3.87      10.4  T
   6    -28.9422329 -0.156448E-07  0.773E-04    3.87      26.4  T
   7    -28.9422329 -0.923126E-08  0.296E-04    3.87      68.9  T
     SCC iter.                  ...        0 min,  0.156 sec
     gradient                   ...        0 min,  0.016 sec
 * total energy  :   -28.4515290 Eh     change        0.3603036E-04 Eh
   gradient norm :     0.0628759 Eh/α   predicted    -0.8086551E-03 (*******%)
   displ. norm   :     0.0758072 α      lambda       -0.1727901E-02
   maximum displ.:     0.0382908 α      in ANC's #4, #1, #10, ...

........................................................................
.............................. CYCLE   31 ..............................
........................................................................
   1    -28.9460945 -0.289461E+02  0.558E-02    3.87       0.0  T
   2    -28.9460968 -0.227759E-05  0.318E-02    3.87       1.0  T
   3    -28.9460965  0.294802E-06  0.799E-03    3.87       2.6  T
   4    -28.9460970 -0.527783E-06  0.271E-03    3.87       7.5  T
   5    -28.9460971 -0.108737E-06  0.116E-03    3.87      17.5  T
   6    -28.9460971 -0.798139E-08  0.355E-04    3.87      57.5  T
   7    -28.9460971 -0.163940E-09  0.156E-04    3.87     130.9  T
     SCC iter.                  ...        0 min,  0.175 sec
     gradient                   ...        0 min,  0.011 sec
 * total energy  :   -28.4524476 Eh     change       -0.9185927E-03 Eh
   gradient norm :     0.0157059 Eh/α   predicted    -0.8689306E-03 (  -5.41%)
   displ. norm   :     0.1188172 α      lambda       -0.4129889E-03
   maximum displ.:     0.0737432 α      in ANC's #8, #4, #5, ...

........................................................................
.............................. CYCLE   32 ..............................
........................................................................
   1    -28.9464697 -0.289465E+02  0.368E-02    3.87       0.0  T
   2    -28.9464705 -0.844561E-06  0.218E-02    3.87       1.0  T
   3    -28.9464687  0.177419E-05  0.140E-02    3.87       1.5  T
   4    -28.9464714 -0.265257E-05  0.143E-03    3.87      14.3  T
   5    -28.9464714 -0.800933E-08  0.733E-04    3.87      27.9  T
   6    -28.9464714 -0.265550E-08  0.320E-04    3.87      63.8  T
     SCC iter.                  ...        0 min,  0.079 sec
     gradient                   ...        0 min,  0.021 sec
 * total energy  :   -28.4526983 Eh     change       -0.2507460E-03 Eh
   gradient norm :     0.0187838 Eh/α   predicted    -0.2094158E-03 ( -16.48%)
   displ. norm   :     0.1851810 α      lambda       -0.4327537E-03
   maximum displ.:     0.0947062 α      in ANC's #4, #5, #8, ...

........................................................................
.............................. CYCLE   33 ..............................
........................................................................
   1    -28.9457941 -0.289458E+02  0.513E-02    3.87       0.0  T
   2    -28.9457957 -0.156860E-05  0.299E-02    3.87       1.0  T
   3    -28.9457916  0.407559E-05  0.163E-02    3.87       1.3  T
   4    -28.9457968 -0.514901E-05  0.217E-03    3.87       9.4  T
   5    -28.9457968 -0.422779E-07  0.101E-03    3.87      20.3  T
   6    -28.9457968 -0.400320E-08  0.499E-04    3.87      40.9  T
   7    -28.9457968 -0.412806E-08  0.131E-04    3.87     156.1  T
     SCC iter.                  ...        0 min,  0.169 sec
     gradient                   ...        0 min,  0.012 sec
 * total energy  :   -28.4529913 Eh     change       -0.2930078E-03 Eh
   gradient norm :     0.0150941 Eh/α   predicted    -0.2237994E-03 ( -23.62%)
   displ. norm   :     0.1688634 α      lambda       -0.3204919E-03
   maximum displ.:     0.0854103 α      in ANC's #4, #5, #8, ...

........................................................................
.............................. CYCLE   34 ..............................
........................................................................
   1    -28.9457662 -0.289458E+02  0.622E-02    3.87       0.0  T
   2    -28.9457672 -0.103891E-05  0.365E-02    3.87       1.0  T
   3    -28.9457625  0.469367E-05  0.164E-02    3.87       1.2  T
   4    -28.9457680 -0.552204E-05  0.153E-03    3.87      13.3  T
   5    -28.9457681 -0.245499E-07  0.759E-04    3.87      26.9  T
   6    -28.9457681 -0.313752E-08  0.396E-04    3.87      51.6  T
     SCC iter.                  ...        0 min,  0.086 sec
     gradient                   ...        0 min,  0.042 sec
 * total energy  :   -28.4532051 Eh     change       -0.2137692E-03 Eh
   gradient norm :     0.0097305 Eh/α   predicted    -0.1648219E-03 ( -22.90%)
   displ. norm   :     0.1241843 α      lambda       -0.2017108E-03
   maximum displ.:     0.0561357 α      in ANC's #4, #6, #5, ...

........................................................................
.............................. CYCLE   35 ..............................
........................................................................
   1    -28.9458841 -0.289459E+02  0.528E-02    3.88       0.0  T
   2    -28.9458845 -0.363994E-06  0.312E-02    3.88       1.0  T
   3    -28.9458830  0.146927E-05  0.846E-03    3.88       2.4  T
   4    -28.9458847 -0.169371E-05  0.104E-03    3.88      19.6  T
   5    -28.9458847 -0.890490E-08  0.537E-04    3.88      38.0  T
   6    -28.9458847 -0.654097E-09  0.270E-04    3.88      75.7  T
     SCC iter.                  ...        0 min,  0.186 sec
     gradient                   ...        0 min,  0.011 sec
 * total energy  :   -28.4533322 Eh     change       -0.1271183E-03 Eh
   gradient norm :     0.0105038 Eh/α   predicted    -0.1024133E-03 ( -19.43%)
   displ. norm   :     0.1407784 α      lambda       -0.1977738E-03
   maximum displ.:     0.0747675 α      in ANC's #6, #4, #5, ...

........................................................................
.............................. CYCLE   36 ..............................
........................................................................
   1    -28.9448592 -0.289449E+02  0.545E-02    3.88       0.0  T
   2    -28.9448595 -0.297206E-06  0.322E-02    3.88       1.0  T
   3    -28.9448590  0.515684E-06  0.529E-03    3.88       3.9  T
   4    -28.9448596 -0.626391E-06  0.110E-03    3.88      18.6  T
   5    -28.9448597 -0.136455E-07  0.509E-04    3.88      40.1  T
   6    -28.9448597 -0.242451E-09  0.191E-04    3.88     107.1  T
     SCC iter.                  ...        0 min,  0.109 sec
     gradient                   ...        0 min,  0.014 sec
 * total energy  :   -28.4533963 Eh     change       -0.6411406E-04 Eh
   gradient norm :     0.0146539 Eh/α   predicted    -0.1008485E-03 (  57.30%)
   displ. norm   :     0.0531285 α      lambda       -0.1468299E-03
   maximum displ.:     0.0271649 α      in ANC's #9, #6, #5, ...

........................................................................
.............................. CYCLE   37 ..............................
........................................................................
   1    -28.9457573 -0.289458E+02  0.237E-02    3.89       0.0  T
   2    -28.9457575 -0.216063E-06  0.139E-02    3.89       1.5  T
   3    -28.9457568  0.733818E-06  0.661E-03    3.89       3.1  T
   4    -28.9457577 -0.882012E-06  0.843E-04    3.89      24.2  T
   5    -28.9457577 -0.466473E-08  0.415E-04    3.89      49.2  T
     SCC iter.                  ...        0 min,  0.124 sec
     gradient                   ...        0 min,  0.020 sec
 * total energy  :   -28.4534905 Eh     change       -0.9416860E-04 Eh
   gradient norm :     0.0068114 Eh/α   predicted    -0.7362488E-04 ( -21.82%)
   displ. norm   :     0.0573327 α      lambda       -0.7811136E-04
   maximum displ.:     0.0332897 α      in ANC's #9, #6, #3, ...

........................................................................
.............................. CYCLE   38 ..............................
........................................................................
   1    -28.9460278 -0.289460E+02  0.226E-02    3.89       0.0  T
   2    -28.9460279 -0.852886E-07  0.132E-02    3.89       1.5  T
   3    -28.9460275  0.444342E-06  0.503E-03    3.89       4.1  T
   4    -28.9460280 -0.520918E-06  0.473E-04    3.89      43.2  T
   5    -28.9460280 -0.626599E-09  0.257E-04    3.89      79.6  T
     SCC iter.                  ...        0 min,  0.146 sec
     gradient                   ...        0 min,  0.012 sec
 * total energy  :   -28.4535491 Eh     change       -0.5857593E-04 Eh
   gradient norm :     0.0056704 Eh/α   predicted    -0.3918750E-04 ( -33.10%)
   displ. norm   :     0.1178636 α      lambda       -0.9567961E-04
   maximum displ.:     0.0684612 α      in ANC's #9, #6, #4, ...

........................................................................
.............................. CYCLE   39 ..............................
........................................................................
   1    -28.9461425 -0.289461E+02  0.371E-02    3.90       0.0  T
   2    -28.9461426 -0.121008E-06  0.217E-02    3.90       1.0  T
   3    -28.9461421  0.489978E-06  0.529E-03    3.90       3.9  T
   4    -28.9461427 -0.577554E-06  0.635E-04    3.90      32.1  T
   5    -28.9461427 -0.101600E-08  0.320E-04    3.90      63.8  T
     SCC iter.                  ...        0 min,  0.123 sec
     gradient                   ...        0 min,  0.022 sec
 * total energy  :   -28.4536169 Eh     change       -0.6776213E-04 Eh
   gradient norm :     0.0057946 Eh/α   predicted    -0.4850684E-04 ( -28.42%)
   displ. norm   :     0.1393481 α      lambda       -0.8620741E-04
   maximum displ.:     0.0833781 α      in ANC's #9, #6, #4, ...

........................................................................
.............................. CYCLE   40 ..............................
........................................................................
   1    -28.9461640 -0.289462E+02  0.384E-02    3.90       0.0  T
   2    -28.9461641 -0.109825E-06  0.226E-02    3.90       1.0  T
   3    -28.9461640  0.170066E-06  0.332E-03    3.90       6.2  T
   4    -28.9461642 -0.217021E-06  0.669E-04    3.90      30.5  T
   5    -28.9461642 -0.253691E-08  0.319E-04    3.90      64.1  T
     SCC iter.                  ...        0 min,  0.105 sec
     gradient                   ...        0 min,  0.022 sec
 * total energy  :   -28.4536812 Eh     change       -0.6434560E-04 Eh
   gradient norm :     0.0054151 Eh/α   predicted    -0.4394659E-04 ( -31.70%)
   displ. norm   :     0.1803401 α      lambda       -0.1064013E-03
   maximum displ.:     0.1151210 α      in ANC's #9, #6, #4, ...

........................................................................
.............................. CYCLE   41 ..............................
........................................................................
   1    -28.9462419 -0.289462E+02  0.478E-02    3.90       0.0  T
   2    -28.9462421 -0.161561E-06  0.282E-02    3.90       1.0  T
   3    -28.9462419  0.223404E-06  0.365E-03    3.90       5.6  T
   4    -28.9462422 -0.289160E-06  0.869E-04    3.90      23.5  T
   5    -28.9462422 -0.519069E-08  0.389E-04    3.90      52.4  T
     SCC iter.                  ...        0 min,  0.171 sec
     gradient                   ...        0 min,  0.032 sec
 * total energy  :   -28.4537568 Eh     change       -0.7556615E-04 Eh
   gradient norm :     0.0072975 Eh/α   predicted    -0.5493877E-04 ( -27.30%)
   displ. norm   :     0.1523485 α      lambda       -0.9914668E-04
   maximum displ.:     0.1079531 α      in ANC's #9, #6, #4, ...

........................................................................
.............................. CYCLE   42 ..............................
........................................................................
   1    -28.9464695 -0.289465E+02  0.381E-02    3.90       0.0  T
   2    -28.9464697 -0.151725E-06  0.226E-02    3.90       1.0  T
   3    -28.9464694  0.306513E-06  0.386E-03    3.90       5.3  T
   4    -28.9464697 -0.360022E-06  0.837E-04    3.90      24.4  T
   5    -28.9464698 -0.827609E-08  0.354E-04    3.90      57.6  T
     SCC iter.                  ...        0 min,  0.142 sec
     gradient                   ...        0 min,  0.012 sec
 * total energy  :   -28.4538296 Eh     change       -0.7285911E-04 Eh
   gradient norm :     0.0098161 Eh/α   predicted    -0.5073162E-04 ( -30.37%)
   displ. norm   :     0.1628433 α      lambda       -0.1158615E-03
   maximum displ.:     0.1257906 α      in ANC's #9, #6, #4, ...
 * RMSD in coord.:     0.5645886 α      energy gain  -0.4766548E-01 Eh

generating ANC from model Hessian ...
Using Lindh-Hessian (1995)
 Shifting diagonal of input Hessian by    8.5993396744206904E-003
 Lowest  eigenvalues of input Hessian
    0.000000    0.000000    0.000000    0.000000    0.000000    0.000000
    0.010000    0.010620    0.011015    0.011418    0.017322    0.018856
    0.021512    0.026445    0.028831    0.034712    0.034988    0.048930
 Highest eigenvalues
    4.128707    4.193555    4.412958    4.623875    4.670739    4.709488


........................................................................
.............................. CYCLE   43 ..............................
........................................................................
   1    -28.9465607 -0.289466E+02  0.394E-02    3.89       0.0  T
   2    -28.9465609 -0.227668E-06  0.234E-02    3.89       1.0  T
   3    -28.9465608  0.136265E-06  0.288E-03    3.89       7.1  T
   4    -28.9465609 -0.168833E-06  0.108E-03    3.89      19.0  T
   5    -28.9465610 -0.188423E-07  0.386E-04    3.89      52.9  T
   6    -28.9465610 -0.217035E-09  0.109E-04    3.89     186.9  T
     SCC iter.                  ...        0 min,  0.141 sec
     gradient                   ...        0 min,  0.009 sec
 * total energy  :   -28.4539166 Eh     change       -0.8697533E-04 Eh
   gradient norm :     0.0086682 Eh/α   predicted     0.0000000E+00 (-100.00%)
   displ. norm   :     0.0679915 α      lambda       -0.1192763E-03
   maximum displ.:     0.0349172 α      in ANC's #4, #6, #1, ...

........................................................................
.............................. CYCLE   44 ..............................
........................................................................
   1    -28.9467481 -0.289467E+02  0.297E-02    3.89       0.0  T
   2    -28.9467483 -0.266562E-06  0.174E-02    3.89       1.2  T
   3    -28.9467483  0.398307E-07  0.251E-03    3.89       8.1  T
   4    -28.9467484 -0.790342E-07  0.982E-04    3.89      20.8  T
   5    -28.9467484 -0.121204E-07  0.396E-04    3.89      51.5  T
     SCC iter.                  ...        0 min,  0.091 sec
     gradient                   ...        0 min,  0.018 sec
 * total energy  :   -28.4539962 Eh     change       -0.7958036E-04 Eh
   gradient norm :     0.0018893 Eh/α   predicted    -0.5991457E-04 ( -24.71%)
   displ. norm   :     0.1218435 α      lambda       -0.5898630E-04
   maximum displ.:     0.0735218 α      in ANC's #6, #1, #2, ...

........................................................................
.............................. CYCLE   45 ..............................
........................................................................
   1    -28.9466737 -0.289467E+02  0.324E-02    3.88       0.0  T
   2    -28.9466740 -0.299676E-06  0.190E-02    3.88       1.1  T
   3    -28.9466740  0.557189E-07  0.268E-03    3.88       7.6  T
   4    -28.9466741 -0.948631E-07  0.107E-03    3.88      19.0  T
   5    -28.9466741 -0.156713E-07  0.458E-04    3.88      44.6  T
   6    -28.9466741 -0.146986E-08  0.109E-04    3.88     186.6  T
     SCC iter.                  ...        0 min,  0.129 sec
     gradient                   ...        0 min,  0.019 sec
 * total energy  :   -28.4540529 Eh     change       -0.5670185E-04 Eh
   gradient norm :     0.0043360 Eh/α   predicted    -0.2969130E-04 ( -47.64%)
   displ. norm   :     0.0810769 α      lambda        0.8726664E-05
   maximum displ.:     0.0490136 α      in ANC's #6, #1, #2, ...

........................................................................
.............................. CYCLE   46 ..............................
........................................................................
   1    -28.9464434 -0.289464E+02  0.216E-02    3.88       0.0  T
   2    -28.9464436 -0.138576E-06  0.127E-02    3.88       1.6  T
   3    -28.9464435  0.321668E-07  0.190E-03    3.88      10.7  T
   4    -28.9464436 -0.491225E-07  0.758E-04    3.88      26.9  T
   5    -28.9464436 -0.864778E-08  0.307E-04    3.88      66.5  T
     SCC iter.                  ...        0 min,  0.131 sec
     gradient                   ...        0 min,  0.009 sec
 * total energy  :   -28.4540560 Eh     change       -0.3154646E-05 Eh
   gradient norm :     0.0080019 Eh/α   predicted     0.4391524E-05 (-239.21%)
   displ. norm   :     0.0558035 α      lambda       -0.5489399E-04
   maximum displ.:     0.0325283 α      in ANC's #6, #2, #7, ...

........................................................................
.............................. CYCLE   47 ..............................
........................................................................
   1    -28.9465930 -0.289466E+02  0.182E-02    3.88       0.0  T
   2    -28.9465930 -0.445500E-07  0.107E-02    3.88       1.9  T
   3    -28.9465930  0.668697E-07  0.195E-03    3.88      10.5  T
   4    -28.9465931 -0.813267E-07  0.460E-04    3.88      44.4  T
   5    -28.9465931 -0.219165E-08  0.173E-04    3.88     118.2  T
     SCC iter.                  ...        0 min,  0.116 sec
     gradient                   ...        0 min,  0.016 sec
 * total energy  :   -28.4541039 Eh     change       -0.4781646E-04 Eh
   gradient norm :     0.0044058 Eh/α   predicted    -0.2753336E-04 ( -42.42%)
   displ. norm   :     0.3021725 α      lambda       -0.1841848E-03
   maximum displ.:     0.1963164 α      in ANC's #6, #2, #7, ...

........................................................................
.............................. CYCLE   48 ..............................
........................................................................
   1    -28.9460172 -0.289460E+02  0.794E-02    3.88       0.0  T
   2    -28.9460179 -0.691961E-06  0.469E-02    3.88       1.0  T
   3    -28.9460162  0.170672E-05  0.960E-03    3.88       2.1  T
   4    -28.9460182 -0.197880E-05  0.170E-03    3.88      12.0  T
   5    -28.9460182 -0.305563E-07  0.745E-04    3.88      27.4  T
   6    -28.9460182 -0.327248E-09  0.281E-04    3.88      72.5  T
     SCC iter.                  ...        0 min,  0.142 sec
     gradient                   ...        0 min,  0.013 sec
 * total energy  :   -28.4541919 Eh     change       -0.8808039E-04 Eh
   gradient norm :     0.0127318 Eh/α   predicted    -0.1005072E-03 (  14.11%)
   displ. norm   :     0.0317770 α      lambda       -0.7166121E-04
   maximum displ.:     0.0207253 α      in ANC's #4, #5, #1, ...

........................................................................
.............................. CYCLE   49 ..............................
........................................................................
   1    -28.9469350 -0.289469E+02  0.123E-02    3.88       0.0  T
   2    -28.9469352 -0.150742E-06  0.691E-03    3.88       3.0  T
   3    -28.9469351  0.287298E-07  0.208E-03    3.88       9.8  T
   4    -28.9469352 -0.364370E-07  0.792E-04    3.88      25.8  T
   5    -28.9469352 -0.120904E-07  0.243E-04    3.88      84.0  T
     SCC iter.                  ...        0 min,  0.130 sec
     gradient                   ...        0 min,  0.014 sec
 * total energy  :   -28.4542384 Eh     change       -0.4648659E-04 Eh
   gradient norm :     0.0060403 Eh/α   predicted    -0.3587260E-04 ( -22.83%)
   displ. norm   :     0.1806763 α      lambda       -0.9346702E-04
   maximum displ.:     0.1245985 α      in ANC's #6, #2, #7, ...

........................................................................
.............................. CYCLE   50 ..............................
........................................................................
   1    -28.9470328 -0.289470E+02  0.404E-02    3.88       0.0  T
   2    -28.9470329 -0.106698E-06  0.239E-02    3.88       1.0  T
   3    -28.9470327  0.209701E-06  0.318E-03    3.89       6.4  T
   4    -28.9470330 -0.250866E-06  0.795E-04    3.89      25.7  T
   5    -28.9470330 -0.665233E-08  0.362E-04    3.88      56.4  T
     SCC iter.                  ...        0 min,  0.090 sec
     gradient                   ...        0 min,  0.022 sec
 * total energy  :   -28.4543184 Eh     change       -0.8000957E-04 Eh
   gradient norm :     0.0046868 Eh/α   predicted    -0.4826164E-04 ( -39.68%)
   displ. norm   :     0.4863035 α      lambda       -0.2240254E-03
   maximum displ.:     0.3414340 α      in ANC's #6, #2, #7, ...

........................................................................
.............................. CYCLE   51 ..............................
........................................................................
   1    -28.9446342 -0.289446E+02  0.113E-01    3.88       0.0  T
   2    -28.9446363 -0.209503E-05  0.666E-02    3.88       1.0  T
   3    -28.9446357  0.667773E-06  0.693E-03    3.88       2.9  T
   4    -28.9446365 -0.814739E-06  0.305E-03    3.88       6.7  T
   5    -28.9446367 -0.181725E-06  0.110E-03    3.88      18.6  T
   6    -28.9446367 -0.263875E-08  0.277E-04    3.88      73.8  T
   7    -28.9446367 -0.425956E-09  0.923E-05    3.88     221.2  T
     SCC iter.                  ...        0 min,  0.184 sec
     gradient                   ...        0 min,  0.014 sec
 * total energy  :   -28.4543222 Eh     change       -0.3801068E-05 Eh
   gradient norm :     0.0243199 Eh/α   predicted    -0.1385060E-03 (3543.87%)
   displ. norm   :     0.1918171 α      lambda       -0.4321144E-03
   maximum displ.:     0.1238008 α      in ANC's #6, #2, #7, ...

........................................................................
.............................. CYCLE   52 ..............................
........................................................................
   1    -28.9476286 -0.289476E+02  0.522E-02    3.88       0.0  T
   2    -28.9476304 -0.171260E-05  0.300E-02    3.87       1.0  T
   3    -28.9476299  0.440655E-06  0.676E-03    3.87       3.0  T
   4    -28.9476304 -0.465294E-06  0.274E-03    3.87       7.5  T
   5    -28.9476305 -0.155082E-06  0.716E-04    3.87      28.5  T
   6    -28.9476305 -0.432532E-09  0.245E-04    3.87      83.4  T
     SCC iter.                  ...        0 min,  0.132 sec
     gradient                   ...        0 min,  0.015 sec
 * total energy  :   -28.4544532 Eh     change       -0.1309341E-03 Eh
   gradient norm :     0.0051568 Eh/α   predicted    -0.2240121E-03 (  71.09%)
   displ. norm   :     0.1133034 α      lambda       -0.7206264E-04
   maximum displ.:     0.0819842 α      in ANC's #6, #2, #7, ...

........................................................................
.............................. CYCLE   53 ..............................
........................................................................
   1    -28.9472129 -0.289472E+02  0.275E-02    3.88       0.0  T
   2    -28.9472130 -0.101888E-06  0.162E-02    3.88       1.3  T
   3    -28.9472130  0.149287E-07  0.151E-03    3.88      13.6  T
   4    -28.9472130 -0.274381E-07  0.672E-04    3.88      30.4  T
   5    -28.9472130 -0.568289E-08  0.259E-04    3.88      78.7  T
     SCC iter.                  ...        0 min,  0.123 sec
     gradient                   ...        0 min,  0.014 sec
 * total energy  :   -28.4545143 Eh     change       -0.6113392E-04 Eh
   gradient norm :     0.0032061 Eh/α   predicted    -0.3649511E-04 ( -40.30%)
   displ. norm   :     0.4480180 α      lambda       -0.1932526E-03
   maximum displ.:     0.3295984 α      in ANC's #6, #2, #7, ...

........................................................................
.............................. CYCLE   54 ..............................
........................................................................
   1    -28.9440354 -0.289440E+02  0.103E-01    3.88       0.0  T
   2    -28.9440387 -0.326796E-05  0.607E-02    3.88       1.0  T
   3    -28.9440388 -0.541138E-07  0.564E-03    3.88       3.6  T
   4    -28.9440390 -0.214715E-06  0.158E-03    3.88      12.9  T
   5    -28.9440390 -0.157182E-08  0.990E-04    3.88      20.6  T
   6    -28.9440390 -0.872668E-08  0.312E-04    3.88      65.5  T
     SCC iter.                  ...        0 min,  0.124 sec
     gradient                   ...        0 min,  0.019 sec
 * total energy  :   -28.4543732 Eh     change        0.1410685E-03 Eh
   gradient norm :     0.0299207 Eh/α   predicted    -0.1160221E-03 (-182.25%)
   displ. norm   :     0.2783244 α      lambda       -0.6306615E-03
   maximum displ.:     0.2021390 α      in ANC's #6, #2, #7, ...

........................................................................
.............................. CYCLE   55 ..............................
........................................................................
   1    -28.9471367 -0.289471E+02  0.666E-02    3.88       0.0  T
   2    -28.9471389 -0.223229E-05  0.387E-02    3.88       1.0  T
   3    -28.9471389 -0.472302E-08  0.528E-03    3.88       3.9  T
   4    -28.9471390 -0.129258E-06  0.134E-03    3.88      15.3  T
   5    -28.9471391 -0.133184E-07  0.803E-04    3.88      25.4  T
   6    -28.9471391 -0.555149E-08  0.255E-04    3.88      80.2  T
     SCC iter.                  ...        0 min,  0.176 sec
     gradient                   ...        0 min,  0.015 sec
 * total energy  :   -28.4545907 Eh     change       -0.2174612E-03 Eh
   gradient norm :     0.0035375 Eh/α   predicted    -0.3397673E-03 (  56.24%)
   displ. norm   :     0.0615729 α      lambda       -0.3147083E-04
   maximum displ.:     0.0439337 α      in ANC's #6, #2, #1, ...

........................................................................
.............................. CYCLE   56 ..............................
........................................................................
   1    -28.9471876 -0.289472E+02  0.153E-02    3.88       0.0  T
   2    -28.9471876 -0.228152E-07  0.912E-03    3.88       2.2  T
   3    -28.9471876  0.260959E-07  0.120E-03    3.88      17.0  T
   4    -28.9471876 -0.307976E-07  0.344E-04    3.88      59.3  T
   5    -28.9471876 -0.189620E-08  0.134E-04    3.88     152.2  T
     SCC iter.                  ...        0 min,  0.096 sec
     gradient                   ...        0 min,  0.012 sec
 * total energy  :   -28.4546190 Eh     change       -0.2828770E-04 Eh
   gradient norm :     0.0034756 Eh/α   predicted    -0.1579620E-04 ( -44.16%)
   displ. norm   :     0.4140971 α      lambda       -0.1705379E-03
[...]
H        -1.42421494452509    0.09311404508846    0.37637241391686
H         1.60145541050248   -1.30897616168670    3.16184317684458
H         1.58252278788360    1.28370158451426    3.28467131832498
H        -0.03194146941020    1.66497286557704    5.17474467811714
H        -1.03663573442480    1.88310358150442    3.73633720255897
H        -2.21568483391194   -0.08875707624605    4.21803371908286
H        -1.35772566137732   -0.15792087197811    5.76214433503223
H        -1.00729600859327   -1.98560726124234    3.54752549399922
H        -0.00735920339740   -1.89606630308527    5.00151483298866

 Bond Distances (Angstroems)
 ---------------------------
C1-C2=1.3333         C1-C5=1.4943         C1-H11=1.0838        C2-C1=1.3333         C2-C3=1.4480         C2-H12=1.0805        
C3-C2=1.4480         C3-C4=1.3328         C3-H13=1.0790        C4-C3=1.3328         C4-C5=1.4889         C4-H14=1.0823        
C5-C1=1.4943         C5-C4=1.4889         C5-H15=1.1027        C5-H16=1.1056        C6-C7=1.3364         C6-C10=1.4920        
C6-H17=1.0809        C7-C6=1.3364         C7-C8=1.4927         C7-H18=1.0817        C8-C7=1.4927         C8-C9=1.5239         
C8-H19=1.1027        C8-H20=1.1100        C9-C8=1.5239         C9-C10=1.5216        C9-H21=1.1043        C9-H22=1.1111        
C10-C6=1.4920        C10-C9=1.5216        C10-H23=1.1091       C10-H24=1.1033       H11-C1=1.0838        H12-C2=1.0805        
H13-C3=1.0790        H14-C4=1.0823        H15-C5=1.1027        H16-C5=1.1056        H17-C6=1.0809        H18-C7=1.0817        
H19-C8=1.1027        H20-C8=1.1100        H21-C9=1.1043        H22-C9=1.1111        H23-C10=1.1091       H24-C10=1.1033       
 C  H  Rav=1.0955 sigma=0.0125  Rmin=1.0790  Rmax=1.1111    14
 C  C  Rav=1.4464 sigma=0.0760  Rmin=1.3328  Rmax=1.5239    10

 selected bond angles (degree)
 --------------------
C5-C1-C2=108.70                H11-C1-C2=126.28               H11-C1-C5=122.64               C3-C2-C1=108.50                
H12-C2-C1=127.26               H12-C2-C3=123.80               C4-C3-C2=108.52                H13-C3-C2=123.77               
H13-C3-C4=127.27               C5-C4-C3=108.88                H14-C4-C3=126.13               H14-C4-C5=122.65               
C4-C5-C1=100.55                H15-C5-C1=116.28               H15-C5-C4=116.44               H16-C5-C1=108.20               
H16-C5-C4=108.37               H16-C5-H15=106.59              C10-C6-C7=111.69               H17-C6-C7=125.62               
H17-C6-C10=119.91              C8-C7-C6=111.68                H18-C7-C6=125.61               H18-C7-C8=119.90               
C9-C8-C7=104.91                H19-C8-C7=109.05               H19-C8-C9=111.44               H20-C8-C7=113.18               
H20-C8-C9=112.24               H20-C8-H19=106.08              C10-C9-C8=106.44               H21-C9-C8=111.25               
H21-C9-C10=111.34              H22-C9-C8=110.97               H22-C9-C10=111.05              H22-C9-H21=105.87              
C9-C10-C6=105.01               H23-C10-C6=113.13              H23-C10-C9=112.26              H24-C10-C6=109.05              
H24-C10-C9=111.47              H24-C10-H23=106.00             

 selected dihedral angles (degree)
 ---------------------------------
C3-C2-C1-C5=346.06            C3-C2-C1-H11=183.36           H12-C2-C1-C5=173.56           H12-C2-C1-H11= 10.86          
C4-C3-C2-C1=  0.06            C4-C3-C2-H12=172.87           H13-C3-C2-C1=187.18           H13-C3-C2-H12=  0.00          
C5-C4-C3-C2= 13.92            C5-C4-C3-H13=186.47           H14-C4-C3-C2=176.76           H14-C4-C3-H13=349.31          
C4-C5-C1-C2= 20.93            C4-C5-C1-H11=184.40           H15-C5-C1-C2=147.60           H15-C5-C1-H11=311.06          
H16-C5-C1-C2=267.44           H16-C5-C1-H11= 70.90          C1-C5-C4-C3=339.08            C1-C5-C4-H14=175.52           
H15-C5-C4-C3=212.52           H15-C5-C4-H14= 48.96          H16-C5-C4-C3= 92.44           H16-C5-C4-H14=288.89          
C8-C7-C6-C10=  0.12           C8-C7-C6-H17=199.19           H18-C7-C6-C10=160.93          H18-C7-C6-H17=  0.00          
C9-C8-C7-C6=356.73            C9-C8-C7-H18=194.68           H19-C8-C7-C6=116.22           H19-C8-C7-H18=314.17          
H20-C8-C7-C6=234.04           H20-C8-C7-H18= 71.99          C10-C9-C8-C7=  4.96           C10-C9-C8-H19=247.09          
C10-C9-C8-H20=128.26          H21-C9-C8-C7=243.51           H21-C9-C8-H19=125.63          H21-C9-C8-H20=  6.81          
H22-C9-C8-C7=125.91           H22-C9-C8-H19=  8.03          H22-C9-C8-H20=249.20          C9-C10-C6-C7=  3.09           
C9-C10-C6-H17=165.24          H23-C10-C6-C7=125.84          H23-C10-C6-H17=288.00         H24-C10-C6-C7=243.52          
H24-C10-C6-H17= 45.68         C6-C10-C9-C8=355.10           C6-C10-C9-H21=116.49          C6-C10-C9-H22=234.20          
H23-C10-C9-C8=231.78          H23-C10-C9-H21=353.18         H23-C10-C9-H22=110.89         H24-C10-C9-C8=113.03          
H24-C10-C9-H21=234.43         H24-C10-C9-H22=352.14         

 CMA Distance (Angstroems)
 ---------------------------
R(CMA):  3.0542
           -------------------------------------------------
          |                Final Singlepoint                |
           -------------------------------------------------

          ...................................................
          :                      SETUP                      :
          :.................................................:
          :  # basis functions                  54          :
          :  # atomic orbitals                  54          :
          :  # shells                           34          :
          :  # electrons                        54          :
          :  max. iterations                   250          :
          :  Hamiltonian                  GFN2-xTB          :
          :  restarted?                      false          :
          :  GBSA solvation                  false          :
          :  PC potential                    false          :
          :  electronic temp.          300.0000000     K    :
          :  accuracy                    1.0000000          :
          :  -> integral cutoff          0.2500000E+02      :
          :  -> integral neglect         0.1000000E-07      :
          :  -> SCF convergence          0.1000000E-05 Eh   :
          :  -> wf. convergence          0.1000000E-03 e    :
          :  Broyden damping             0.4000000          :
          ...................................................

 iter      E             dE          RMSdq      gap      omega  full diag
   1    -28.9475679 -0.289476E+02  0.734E-05    3.88       0.0  T
   2    -28.9475679 -0.568789E-11  0.430E-05    3.88     475.1  T
   3    -28.9475679  0.863665E-11  0.293E-05    3.88     695.6  T

   *** convergence criteria satisfied after 3 iterations ***

         #    Occupation            Energy/Eh            Energy/eV
      -------------------------------------------------------------
         1        2.0000           -0.6394879             -17.4014
       ...           ...                  ...                  ...
        21        2.0000           -0.4409276             -11.9983
        22        2.0000           -0.4350485             -11.8383
        23        2.0000           -0.4325916             -11.7714
        24        2.0000           -0.4305379             -11.7155
        25        2.0000           -0.4121591             -11.2154
        26        2.0000           -0.3689613             -10.0399
        27        2.0000           -0.3621598              -9.8549 (HOMO)
        28                         -0.2196427              -5.9768 (LUMO)
        29                         -0.1939521              -5.2777
        30                         -0.1241116              -3.3772
        31                          0.0783951               2.1332
        32                          0.0877008               2.3865
       ...                                ...                  ...
        54                          0.7266667              19.7736
      -------------------------------------------------------------
                  HL-Gap            0.1425171 Eh            3.8781 eV
             Fermi-level           -0.2909012 Eh           -7.9158 eV

 SCC (total)                   0 d,  0 h,  0 min,  0.106 sec
 SCC setup                      ...        0 min,  0.001 sec (  0.865%)
 Dispersion                     ...        0 min,  0.000 sec (  0.275%)
 classical contributions        ...        0 min,  0.000 sec (  0.096%)
 integral evaluation            ...        0 min,  0.010 sec (  9.115%)
 iterations                     ...        0 min,  0.076 sec ( 71.272%)
 molecular gradient             ...        0 min,  0.018 sec ( 16.672%)
 printout                       ...        0 min,  0.001 sec (  1.185%)

         :::::::::::::::::::::::::::::::::::::::::::::::::::::
         ::                     SUMMARY                     ::
         :::::::::::::::::::::::::::::::::::::::::::::::::::::
         :: total energy             -28.454770227638 Eh    ::
         :: gradient norm              0.000725252884 Eh/a0 ::
         :: HOMO-LUMO gap              3.878087670342 eV    ::
         ::.................................................::
         :: SCC energy               -28.947567946208 Eh    ::
         :: -> isotropic ES            0.003347365957 Eh    ::
         :: -> anisotropic ES          0.007316203905 Eh    ::
         :: -> anisotropic XC          0.020270591379 Eh    ::
         :: -> dispersion             -0.022494899511 Eh    ::
         :: repulsion energy           0.491349242444 Eh    ::
         :: add. restraining           0.001288538397 Eh    ::
         :: total charge              -0.000000000000 e     ::
         :::::::::::::::::::::::::::::::::::::::::::::::::::::

           -------------------------------------------------
          |                Property Printout                |
           -------------------------------------------------

    * Orbital Energies and Occupations

         #    Occupation            Energy/Eh            Energy/eV
      -------------------------------------------------------------
         1        2.0000           -0.6394879             -17.4014
       ...           ...                  ...                  ...
        15        2.0000           -0.4705279             -12.8037
        16        2.0000           -0.4508057             -12.2670
        17        2.0000           -0.4506203             -12.2620
        18        2.0000           -0.4459649             -12.1353
        19        2.0000           -0.4434818             -12.0678
        20        2.0000           -0.4417412             -12.0204
        21        2.0000           -0.4409276             -11.9983
        22        2.0000           -0.4350485             -11.8383
        23        2.0000           -0.4325916             -11.7714
        24        2.0000           -0.4305379             -11.7155
        25        2.0000           -0.4121591             -11.2154
        26        2.0000           -0.3689613             -10.0399
        27        2.0000           -0.3621598              -9.8549 (HOMO)
        28                         -0.2196427              -5.9768 (LUMO)
        29                         -0.1939521              -5.2777
        30                         -0.1241116              -3.3772
        31                          0.0783951               2.1332
        32                          0.0877008               2.3865
        33                          0.1028213               2.7979
        34                          0.1053875               2.8677
        35                          0.1156884               3.1480
        36                          0.1217306               3.3125
        37                          0.1319478               3.5905
        38                          0.1430424               3.8924
       ...                                ...                  ...
        54                          0.7266667              19.7736
      -------------------------------------------------------------
                  HL-Gap            0.1425171 Eh            3.8781 eV
             Fermi-level           -0.2909012 Eh           -7.9158 eV

     #   Z          covCN         q      C6AA      α(0)
     1   6 C        3.054    -0.027    28.615     8.773
     2   6 C        3.024    -0.044    29.059     8.842
     3   6 C        3.026    -0.044    29.066     8.843
     4   6 C        3.055    -0.026    28.604     8.771
     5   6 C        3.912    -0.061    21.618     6.609
     6   6 C        2.965    -0.037    28.921     8.821
     7   6 C        2.965    -0.037    28.917     8.820
     8   6 C        3.841    -0.051    21.450     6.589
     9   6 C        3.832    -0.049    21.436     6.587
    10   6 C        3.841    -0.050    21.446     6.588
    11   1 H        0.925     0.024     2.678     2.559
    12   1 H        0.926     0.022     2.710     2.574
    13   1 H        0.926     0.022     2.707     2.573
    14   1 H        0.925     0.024     2.676     2.558
    15   1 H        0.923     0.060     2.202     2.321
    16   1 H        0.922     0.060     2.205     2.322
    17   1 H        0.926     0.025     2.660     2.551
    18   1 H        0.925     0.025     2.663     2.552
    19   1 H        0.923     0.031     2.578     2.511
    20   1 H        0.922     0.030     2.582     2.513
    21   1 H        0.923     0.022     2.703     2.571
    22   1 H        0.921     0.023     2.684     2.562
    23   1 H        0.922     0.030     2.580     2.512
    24   1 H        0.923     0.030     2.580     2.512

 Mol. C6AA /au·bohr⁶  :       5356.151914
 Mol. C8AA /au·bohr⁸  :     123095.268832
 Mol. α(0) /au        :        114.435114


Wiberg/Mayer (AO) data.
largest (>0.10) Wiberg bond orders for each atom

 ---------------------------------------------------------------------------
     #   Z sym  total        # sym  WBO       # sym  WBO       # sym  WBO
 ---------------------------------------------------------------------------
     1   6 C    3.986 --     2 C    1.692     5 C    1.028    11 H    0.971
                             7 C    0.134     4 C    0.113
     2   6 C    3.988 --     1 C    1.692     3 C    1.206    12 H    0.972
     3   6 C    3.988 --     4 C    1.691     2 C    1.206    13 H    0.973
     4   6 C    3.986 --     3 C    1.691     5 C    1.030    14 H    0.971
                             6 C    0.134     1 C    0.113
     5   6 C    3.996 --     4 C    1.030     1 C    1.028    15 H    0.953
                            16 H    0.921
     6   6 C    3.989 --     7 C    1.744    10 C    1.022    17 H    0.969
                             4 C    0.134
     7   6 C    3.988 --     6 C    1.744     8 C    1.022    18 H    0.969
                             1 C    0.134
     8   6 C    3.998 --     7 C    1.022     9 C    1.003    20 H    0.967
                            19 H    0.965
     9   6 C    3.998 --    10 C    1.004     8 C    1.003    22 H    0.982
                            21 H    0.979
    10   6 C    3.998 --     6 C    1.022     9 C    1.004    23 H    0.967
                            24 H    0.965
    11   1 H    0.999 --     1 C    0.971
    12   1 H    1.000 --     2 C    0.972
    13   1 H    1.000 --     3 C    0.973
    14   1 H    0.999 --     4 C    0.971
    15   1 H    0.996 --     5 C    0.953
    16   1 H    0.996 --     5 C    0.921
    17   1 H    0.999 --     6 C    0.969
    18   1 H    0.999 --     7 C    0.969
    19   1 H    0.999 --     8 C    0.965
    20   1 H    0.999 --     8 C    0.967
    21   1 H    1.000 --     9 C    0.979
    22   1 H    0.999 --     9 C    0.982
    23   1 H    0.999 --    10 C    0.967
    24   1 H    0.999 --    10 C    0.965
 ---------------------------------------------------------------------------

Topologies differ in total number of bonds
Writing topology from bond orders to xtbtopo.mol

molecular dipole:
                 x           y           z       tot (Debye)
 q only:       -0.342      -0.009       0.062
   full:       -0.367      -0.009       0.069       0.950
molecular quadrupole (traceless):
                xx          xy          yy          xz          yz          zz
 q only:       -0.008      -0.042       0.125      -1.748       0.006      -0.117
  q+dip:        0.923       0.000       1.079      -2.717       0.131      -2.002
   full:        0.232      -0.041       0.246      -1.842       0.030      -0.478

           -------------------------------------------------
          |                Geometry Summary                 |
           -------------------------------------------------

      molecular mass/u    :      134.2185295
   center of mass at/Å    :        0.1229913       0.0088323       2.5482592
  moments of inertia/u·Å² :        0.1951334E+03   0.4402864E+03   0.4873897E+03
rotational constants/cm⁻¹ :        0.8639031E-01   0.3828788E-01   0.3458759E-01

 * 21 selected distances

     #   Z          #   Z                                           value/Å
     1   6 C        2   6 C                                       1.3332681
     3   6 C        4   6 C                                       1.3327836
     1   6 C        5   6 C                                       1.4942628
     4   6 C        5   6 C                                       1.4888734
     6   6 C        7   6 C                                       1.3363513
     8   6 C        9   6 C                                       1.5239194 (max)
     9   6 C       10   6 C                                       1.5216020
     1   6 C       11   1 H                                       1.0837540
     2   6 C       12   1 H                                       1.0804531
     3   6 C       13   1 H                                       1.0789618 (min)
     4   6 C       14   1 H                                       1.0823186
     5   6 C       15   1 H                                       1.1026757
     5   6 C       16   1 H                                       1.1055957
     6   6 C       17   1 H                                       1.0809357
     7   6 C       18   1 H                                       1.0816957
     8   6 C       19   1 H                                       1.1027035
     8   6 C       20   1 H                                       1.1099560
     9   6 C       21   1 H                                       1.1042696
     9   6 C       22   1 H                                       1.1111348
    10   6 C       23   1 H                                       1.1091172
    10   6 C       24   1 H                                       1.1033264

 * 2 distinct bonds (by element types)

   Z      Z             #   av. dist./Å        max./Å        min./Å
   1 H    6 C          14     1.0954927     1.1111348     1.0789618
   6 C    6 C           7     1.4330086     1.5239194     1.3327836


optimized geometry written to: xtbopt.xyz


           -------------------------------------------------
          | TOTAL ENERGY              -28.454770227638 Eh   |
          | GRADIENT NORM               0.000725252884 Eh/α |
          | HOMO-LUMO GAP               3.878087670342 eV   |
           -------------------------------------------------

------------------------------------------------------------------------
 * finished run on 2022/09/06 at 17:48:59.446     
------------------------------------------------------------------------
 total:
 * wall-time:     0 d,  0 h,  0 min, 16.056 sec
 *  cpu-time:     0 d,  0 h,  9 min, 47.959 sec
 * ratio c/w:    36.619 speedup
 SCF:
 * wall-time:     0 d,  0 h,  0 min,  0.297 sec
 *  cpu-time:     0 d,  0 h,  0 min,  9.385 sec
 * ratio c/w:    31.636 speedup
 ANC optimizer:
 * wall-time:     0 d,  0 h,  0 min, 15.635 sec
 *  cpu-time:     0 d,  0 h,  9 min, 32.846 sec
 * ratio c/w:    36.639 speedup

