      -----------------------------------------------------------      
     |                   =====================                   |     
     |                           x T B                           |     
     |                   =====================                   |     
     |                         S. Grimme                         |     
     |          Mulliken Center for Theoretical Chemistry        |     
     |                    University of Bonn                     |     
      -----------------------------------------------------------      

   * xtb version 6.3.3 (7355c4f) compiled by 'conda@14e9545d6667' on 2020-09-17

   xtb is free software: you can redistribute it and/or modify it under
   the terms of the GNU Lesser General Public License as published by
   the Free Software Foundation, either version 3 of the License, or
   (at your option) any later version.
   
   xtb is distributed in the hope that it will be useful,
   but WITHOUT ANY WARRANTY; without even the implied warranty of
   MERCHANTABILITY or FITNESS FOR A PARTICULAR PURPOSE.  See the
   GNU Lesser General Public License for more details.
   
   Cite this work as:
   * C. Bannwarth, E. Caldeweyher, S. Ehlert, A. Hansen, P. Pracht,
     J. Seibert, S. Spicher, S. Grimme, WIREs Comput. Mol. Sci., 2020,
     e01493. DOI: 10.1002/wcms.1493
   
   for GFN2-xTB:
   * S. Grimme, C. Bannwarth, P. Shushkov, J. Chem. Theory Comput., 2017,
     13, 1989-2009. DOI: 10.1021/acs.jctc.7b00118
   for GFN1-xTB:
   * C. Bannwarth, S. Ehlert and S. Grimme., J. Chem. Theory Comput., 2019,
     15, 1652-1671. DOI: 10.1021/acs.jctc.8b01176
   for GFN0-xTB:
   * P. Pracht, E. Caldeweyher, S. Ehlert, S. Grimme, ChemRxiv, 2019, preprint.
     DOI: 10.26434/chemrxiv.8326202.v1
   for GFN-FF:
   * S. Spicher and S. Grimme, Angew. Chem. Int. Ed., 2020, 59, 15665-15673.
     DOI: 10.1002/anie.202004239
   
   for DFT-D4:
   * E. Caldeweyher, C. Bannwarth and S. Grimme, J. Chem. Phys., 2017,
     147, 034112. DOI: 10.1063/1.4993215
   * E. Caldeweyher, S. Ehlert, A. Hansen, H. Neugebauer, S. Spicher,
     C. Bannwarth and S. Grimme, J. Chem. Phys., 2019, 150, 154122.
     DOI: 10.1063/1.5090222
   * E. Caldeweyher, J.-M. Mewes, S. Ehlert and S. Grimme, Phys. Chem. Chem. Phys.
     2020, 22, 8499-8512. DOI: 10.1039/D0CP00502A
   
   for sTDA-xTB:
   * S. Grimme and C. Bannwarth, J. Chem. Phys., 2016, 145, 054103.
     DOI: 10.1063/1.4959605
   
   in the mass-spec context:
   * V. Asgeirsson, C. Bauer and S. Grimme, Chem. Sci., 2017, 8, 4879.
     DOI: 10.1039/c7sc00601b
   * J. Koopman and S. Grimme, ACS Omega 2019, 4, 12, 15120-15133.
     DOI: 10.1021/acsomega.9b02011
   
   for metadynamics refer to:
   * S. Grimme, J. Chem. Theory Comput., 2019, 155, 2847-2862
     DOI: 10.1021/acs.jctc.9b00143
   
   with help from (in alphabetical order)
   C. Bannwarth, F. Bohle, G. Brandenburg, E. Caldeweyher, M. Checinski,
   S. Dohm, S. Ehlert, S. Ehrlich, F. März, H. Neugebauer, J. Pisarek,
   P. Pracht, P. Shushkov, and S. Spicher.
   
 * started run on 2022/09/06 at 17:48:59.536     

           -------------------------------------------------
          |                Calculation Setup                |
           -------------------------------------------------

          program call               : xtb /home/svss/Project-DBcg-Debug/aqme2_20220329/20220906-example-end-to-end/End-to-end_Workflows/End-to-end workflow 2, SN2 PES/AQME inputs/CSEARCH/crest_xyz/TS3_crest/TS3_crest_xtb1.xyz --opt --input constrain2.inp -c 0 --uhf 0 -P 8
          hostname                   : fireball.chem.colostate.edu
          coordinate file            : /home/svss/Project-DBcg-Debug/aqme2_20220329/20220906-example-end-to-end/End-to-end_Workflows/End-to-end workflow 2, SN2 PES/AQME inputs/CSEARCH/crest_xyz/TS3_crest/TS3_crest_xtb1.xyz
          omp threads                :                     8
          number of atoms            :                    24
          number of electrons        :                    54
          charge                     :                     0
          spin                       :                   0.0
          first test random number   :      0.25710284660950

   ID    Z sym.   atoms
    1    6 C      1-10
    2    1 H      11-24
constraining bond 4 6 to    2.3500000 Å, actual value:    5.1860379 Å
constraining bond 1 7 to    2.3500000 Å, actual value:    5.3047030 Å

molecular fragmentation (1/2 indicates fragments):
111112222211111122222222
# atoms in fragment 1/2:    11    13
 fragment masses (1/2) :       66.10       68.12
CMA distance (Bohr)    :   5.772
constraining FC (au)   :  0.5000
########################################################################
[WARNING] Please study the warnings concerning your input carefully
-1- prog_main_parseArguments: Process number higher than OMP_NUM_THREADS, I hope you know what you are doing.
########################################################################

           -------------------------------------------------
          |                 G F N 2 - x T B                 |
           -------------------------------------------------

        Reference                      10.1021/acs.jctc.8b01176
      * Hamiltonian:
        H0-scaling (s, p, d)           1.850000    2.230000    2.230000
        zeta-weighting                 0.500000
      * Dispersion:
        s8                             2.700000
        a1                             0.520000
        a2                             5.000000
        s9                             5.000000
      * Repulsion:
        kExp                           1.500000    1.000000
        rExp                           1.000000
      * Coulomb:
        alpha                          2.000000
        third order                    shell-resolved
        anisotropic                    true
        a3                             3.000000
        a5                             4.000000
        cn-shift                       1.200000
        cn-exp                         4.000000
        max-rad                        5.000000

q/qsh data taken from xtbrestart
CAMM data taken from xtbrestart

          ...................................................
          :                      SETUP                      :
          :.................................................:
          :  # basis functions                  54          :
          :  # atomic orbitals                  54          :
          :  # shells                           34          :
          :  # electrons                        54          :
          :  max. iterations                   250          :
          :  Hamiltonian                  GFN2-xTB          :
          :  restarted?                       true          :
          :  GBSA solvation                  false          :
          :  PC potential                    false          :
          :  electronic temp.          300.0000000     K    :
          :  accuracy                    1.0000000          :
          :  -> integral cutoff          0.2500000E+02      :
          :  -> integral neglect         0.1000000E-07      :
          :  -> SCF convergence          0.1000000E-05 Eh   :
          :  -> wf. convergence          0.1000000E-03 e    :
          :  Broyden damping             0.4000000          :
          ...................................................

 iter      E             dE          RMSdq      gap      omega  full diag
   1    -28.9475679 -0.289476E+02  0.358E-06    3.88       0.0  T
   2    -28.9475679 -0.746070E-13  0.223E-06    3.88    9161.1  T
   3    -28.9475679  0.639488E-13  0.122E-06    3.88   16672.1  T

   *** convergence criteria satisfied after 3 iterations ***

         #    Occupation            Energy/Eh            Energy/eV
      -------------------------------------------------------------
         1        2.0000           -0.6394879             -17.4014
       ...           ...                  ...                  ...
        21        2.0000           -0.4409276             -11.9983
        22        2.0000           -0.4350486             -11.8383
        23        2.0000           -0.4325916             -11.7714
        24        2.0000           -0.4305379             -11.7155
        25        2.0000           -0.4121591             -11.2154
        26        2.0000           -0.3689613             -10.0399
        27        2.0000           -0.3621598              -9.8549 (HOMO)
        28                         -0.2196427              -5.9768 (LUMO)
        29                         -0.1939521              -5.2777
        30                         -0.1241116              -3.3772
        31                          0.0783950               2.1332
        32                          0.0877007               2.3865
       ...                                ...                  ...
        54                          0.7266668              19.7736
      -------------------------------------------------------------
                  HL-Gap            0.1425172 Eh            3.8781 eV
             Fermi-level           -0.2909012 Eh           -7.9158 eV

 SCC (total)                   0 d,  0 h,  0 min,  0.148 sec
 SCC setup                      ...        0 min,  0.009 sec (  6.045%)
 Dispersion                     ...        0 min,  0.001 sec (  0.341%)
 classical contributions        ...        0 min,  0.000 sec (  0.113%)
 integral evaluation            ...        0 min,  0.009 sec (  6.208%)
 iterations                     ...        0 min,  0.108 sec ( 72.758%)
 molecular gradient             ...        0 min,  0.019 sec ( 13.123%)
 printout                       ...        0 min,  0.001 sec (  0.884%)

         :::::::::::::::::::::::::::::::::::::::::::::::::::::
         ::                     SUMMARY                     ::
         :::::::::::::::::::::::::::::::::::::::::::::::::::::
         :: total energy             -28.455963674371 Eh    ::
         :: gradient norm              0.076691455023 Eh/a0 ::
         :: HOMO-LUMO gap              3.878089166804 eV    ::
         ::.................................................::
         :: SCC energy               -28.947567946223 Eh    ::
         :: -> isotropic ES            0.003347365442 Eh    ::
         :: -> anisotropic ES          0.007316203904 Eh    ::
         :: -> anisotropic XC          0.020270593444 Eh    ::
         :: -> dispersion             -0.022494899358 Eh    ::
         :: repulsion energy           0.491349242444 Eh    ::
         :: add. restraining           0.000095091679 Eh    ::
         :: total charge              -0.000000000000 e     ::
         :::::::::::::::::::::::::::::::::::::::::::::::::::::

      ----------------------------------------------------------- 
     |                   =====================                   |
     |                        A N C O P T                        |
     |                   =====================                   |
     |               Approximate Normal Coordinate               |
     |                Rational Function Optimizer                |
      ----------------------------------------------------------- 

          ...................................................
          :                      SETUP                      :
          :.................................................:
          :   optimization level            normal          :
          :   max. optcycles                   200          :
          :   ANC micro-cycles                  20          :
          :   degrees of freedom                66          :
          :.................................................:
          :   RF solver                   davidson          :
          :   write xtbopt.log                true          :
          :   linear?                        false          :
          :   energy convergence         0.5000000E-05 Eh   :
          :   grad. convergence          0.1000000E-02 Eh/α :
          :   maximium RF displ.         1.0000000          :
          :   Hlow (freq-cutoff)         0.1000000E-01      :
          :   Hmax (freq-cutoff)         5.0000000          :
          :   S6 in model hess.         20.0000000          :
          ...................................................

generating ANC from model Hessian ...
Using Lindh-Hessian (1995)
 Shifting diagonal of input Hessian by    9.0700495518542118E-003
 Lowest  eigenvalues of input Hessian
    0.000000    0.000000    0.000000    0.000000    0.000000    0.000000
    0.010000    0.010805    0.011432    0.011686    0.018546    0.019892
    0.022807    0.026989    0.031068    0.037281    0.039586    0.053946
 Highest eigenvalues
    1.641864    1.765713    1.873921    1.936235    2.287114    2.306462


........................................................................
.............................. CYCLE    1 ..............................
........................................................................
   1    -28.9475679 -0.289476E+02  0.453E-07    3.88       0.0  T
   2    -28.9475679  0.710543E-14  0.338E-07    3.88   60451.8  T
   3    -28.9475679  0.106581E-13  0.145E-07    3.88  100000.0  T
     SCC iter.                  ...        0 min,  0.071 sec
     gradient                   ...        0 min,  0.022 sec
 * total energy  :   -28.4559637 Eh     change       -0.1776357E-13 Eh
   gradient norm :     0.0766915 Eh/α   predicted     0.0000000E+00 (-100.00%)
   displ. norm   :     0.0766781 α      lambda       -0.4337259E-02
   maximum displ.:     0.0351653 α      in ANC's #26, #55, #63, ...

........................................................................
.............................. CYCLE    2 ..............................
........................................................................
   1    -28.9489163 -0.289489E+02  0.819E-02    3.77       0.0  T
   2    -28.9489393 -0.230058E-04  0.493E-02    3.78       1.0  T
   3    -28.9489352  0.405855E-05  0.299E-02    3.77       1.0  T
   4    -28.9489424 -0.717721E-05  0.730E-03    3.78       2.8  T
   5    -28.9489434 -0.103142E-05  0.123E-03    3.77      16.7  T
   6    -28.9489434 -0.396269E-08  0.784E-04    3.77      26.0  T
   7    -28.9489434 -0.433432E-08  0.385E-04    3.77      53.0  T
     SCC iter.                  ...        0 min,  0.198 sec
     gradient                   ...        0 min,  0.020 sec
 * total energy  :   -28.4588320 Eh     change       -0.2868314E-02 Eh
   gradient norm :     0.0287277 Eh/α   predicted    -0.2181382E-02 ( -23.95%)
   displ. norm   :     0.0514668 α      lambda       -0.9153666E-03
   maximum displ.:     0.0210208 α      in ANC's #9, #55, #2, ...

........................................................................
.............................. CYCLE    3 ..............................
........................................................................
   1    -28.9503234 -0.289503E+02  0.611E-02    3.73       0.0  T
   2    -28.9503303 -0.685554E-05  0.353E-02    3.73       1.0  T
   3    -28.9503275  0.280384E-05  0.235E-02    3.73       1.0  T
   4    -28.9503339 -0.637952E-05  0.273E-03    3.73       7.5  T
   5    -28.9503340 -0.101881E-06  0.682E-04    3.73      29.9  T
   6    -28.9503340 -0.359980E-08  0.429E-04    3.73      47.5  T
     SCC iter.                  ...        0 min,  0.173 sec
     gradient                   ...        0 min,  0.017 sec
 * total energy  :   -28.4593283 Eh     change       -0.4962635E-03 Eh
   gradient norm :     0.0051392 Eh/α   predicted    -0.4588969E-03 (  -7.53%)
   displ. norm   :     0.0187776 α      lambda       -0.3736242E-04
   maximum displ.:     0.0091784 α      in ANC's #6, #26, #7, ...

........................................................................
.............................. CYCLE    4 ..............................
........................................................................
   1    -28.9495568 -0.289496E+02  0.209E-02    3.72       0.0  T
   2    -28.9495570 -0.171331E-06  0.120E-02    3.72       1.7  T
   3    -28.9495564  0.566482E-06  0.671E-03    3.72       3.0  T
   4    -28.9495572 -0.750128E-06  0.525E-04    3.72      38.9  T
   5    -28.9495572 -0.366411E-08  0.221E-04    3.72      92.3  T
     SCC iter.                  ...        0 min,  0.149 sec
     gradient                   ...        0 min,  0.017 sec
 * total energy  :   -28.4593538 Eh     change       -0.2551629E-04 Eh
   gradient norm :     0.0020355 Eh/α   predicted    -0.1868953E-04 ( -26.75%)
   displ. norm   :     0.0167143 α      lambda       -0.1361056E-04
   maximum displ.:     0.0097903 α      in ANC's #6, #26, #1, ...

........................................................................
.............................. CYCLE    5 ..............................
........................................................................
   1    -28.9490068 -0.289490E+02  0.161E-02    3.72       0.0  T
   2    -28.9490069 -0.857092E-07  0.915E-03    3.72       2.2  T
   3    -28.9490067  0.237251E-06  0.403E-03    3.72       5.1  T
   4    -28.9490070 -0.290144E-06  0.428E-04    3.72      47.7  T
   5    -28.9490070 -0.275029E-08  0.151E-04    3.72     135.4  T
     SCC iter.                  ...        0 min,  0.185 sec
     gradient                   ...        0 min,  0.023 sec
 * total energy  :   -28.4593618 Eh     change       -0.8054601E-05 Eh
   gradient norm :     0.0006575 Eh/α   predicted    -0.6809089E-05 ( -15.46%)
   displ. norm   :     0.0120346 α      lambda       -0.1899889E-05
   maximum displ.:     0.0076679 α      in ANC's #6, #1, #26, ...

........................................................................
.............................. CYCLE    6 ..............................
........................................................................
   1    -28.9489883 -0.289490E+02  0.702E-03    3.72       0.0  T
   2    -28.9489884 -0.130413E-07  0.407E-03    3.72       5.0  T
   3    -28.9489884  0.226138E-08  0.505E-04    3.72      40.4  T
   4    -28.9489884 -0.362417E-08  0.196E-04    3.72     104.0  T
     SCC iter.                  ...        0 min,  0.116 sec
     gradient                   ...        0 min,  0.043 sec
 * total energy  :   -28.4593633 Eh     change       -0.1509338E-05 Eh
   gradient norm :     0.0004199 Eh/α   predicted    -0.9502881E-06 ( -37.04%)
   displ. norm   :     0.0071149 α      lambda       -0.4618407E-06
   maximum displ.:     0.0041787 α      in ANC's #6, #1, #7, ...

   *** GEOMETRY OPTIMIZATION CONVERGED AFTER 6 ITERATIONS ***

------------------------------------------------------------------------
 total energy gain   :        -0.0033997 Eh       -2.1333 kcal/mol
 total RMSD          :         0.0246480 a0        0.0130 Å
 total power (kW/mol):        -1.4876334 (step)   -6.4551 (real)
------------------------------------------------------------------------

 ANCopt (total)                0 d,  0 h,  0 min,  1.383 sec
 optimizer setup                ...        0 min,  0.001 sec (  0.080%)
 model hessian                  ...        0 min,  0.096 sec (  6.938%)
 ANC generation                 ...        0 min,  0.119 sec (  8.587%)
 coordinate transformation      ...        0 min,  0.001 sec (  0.065%)
 single point calculation       ...        0 min,  1.131 sec ( 81.760%)
 optimization log               ...        0 min,  0.002 sec (  0.178%)
 hessian update                 ...        0 min,  0.022 sec (  1.593%)
 rational function              ...        0 min,  0.003 sec (  0.241%)

================
 final structure:
================
24
 xtb: 6.3.3 (7355c4f)
C         0.11871040683769    1.22041868822861    1.28555741772677
C         1.28616283883985    0.81927727785541    0.71241623172182
C         1.30149040111812   -0.59719793494366    0.64403353699723
C         0.14351470041582   -1.07687488237502    1.17445292654036
C        -0.81937826491775    0.05830018639896    1.29696625703199
C         0.75346134003286   -0.70289631041304    3.41608297888689
C         0.74132369652277    0.64496784770864    3.48055999642108
C        -0.42057943184773    1.15502731543779    4.28889373335698
C        -1.22072827180149   -0.10507206689586    4.67275997743288
C        -0.39918766096792   -1.30839728201348    4.17006332293224
H        -0.20307127631135    2.23882805903459    1.41660220876070
H         2.12038650434780    1.45095645236121    0.46169758805066
H         2.14896769813542   -1.18348516916242    0.33442261430174
H        -0.15612300290630   -2.10984151318292    1.20626170248461
H        -1.51167458978082    0.01069480244289    2.12805535828211
H        -1.41892208086687    0.09617869460293    0.37823707366784
H         1.60813953277443   -1.30615655999681    3.17118762267158
H         1.58494648844539    1.28387348732586    3.29477561846272
H        -0.03810348946221    1.66361004260870    5.17839591381132
H        -1.03313762264865    1.87872775932747    3.74893992997295
H        -2.21251659366612   -0.09175212582564    4.21964161938281
H        -1.36626331234770   -0.15834912482413    5.75139773624490
H        -0.99949342433341   -1.98680875885374    3.56183319314751
H        -0.00792458561065   -1.89402688484662    5.00676644171144

 Bond Distances (Angstroems)
 ---------------------------
C1-C2=1.3610         C1-C5=1.4935         C1-H11=1.0760        C2-C1=1.3610         C2-C3=1.4182         C2-H12=1.0760        
C3-C2=1.4182         C3-C4=1.3610         C3-H13=1.0760        C4-C3=1.3610         C4-C5=1.4936         C4-H14=1.0760        
C5-C1=1.4935         C5-C4=1.4936         C5-H15=1.0827        C5-H16=1.0977        C6-C7=1.3495         C6-C10=1.5046        
C6-H17=1.0744        C7-C6=1.3495         C7-C8=1.5045         C7-H18=1.0744        C8-C7=1.5045         C8-C9=1.5412         
C8-H19=1.0937        C8-H20=1.0911        C9-C8=1.5412         C9-C10=1.5413        C9-H21=1.0905        C9-H22=1.0897        
C10-C6=1.5046        C10-C9=1.5413        C10-H23=1.0911       C10-H24=1.0937       H11-C1=1.0760        H12-C2=1.0760        
H13-C3=1.0760        H14-C4=1.0760        H15-C5=1.0827        H16-C5=1.0977        H17-C6=1.0744        H18-C7=1.0744        
H19-C8=1.0937        H20-C8=1.0911        H21-C9=1.0905        H22-C9=1.0897        H23-C10=1.0911       H24-C10=1.0937       
 C  H  Rav=1.0845 sigma=0.0084  Rmin=1.0744  Rmax=1.0977    14
 C  C  Rav=1.4568 sigma=0.0727  Rmin=1.3495  Rmax=1.5413    10

 selected bond angles (degree)
 --------------------
C5-C1-C2=108.22                H11-C1-C2=125.93               H11-C1-C5=123.21               C3-C2-C1=108.90                
H12-C2-C1=126.17               H12-C2-C3=124.52               C4-C3-C2=108.91                H13-C3-C2=124.51               
H13-C3-C4=126.17               C5-C4-C3=108.22                H14-C4-C3=125.93               H14-C4-C5=123.21               
C4-C5-C1=100.71                H15-C5-C1=116.21               H15-C5-C4=116.22               H16-C5-C1=108.05               
H16-C5-C4=108.04               H16-C5-H15=107.14              C10-C6-C7=111.79               H17-C6-C7=125.37               
H17-C6-C10=119.85              C8-C7-C6=111.79                H18-C7-C6=125.35               H18-C7-C8=119.85               
C9-C8-C7=104.93                H19-C8-C7=108.94               H19-C8-C9=111.05               H20-C8-C7=113.11               
H20-C8-C9=111.97               H20-C8-H19=106.88              C10-C9-C8=106.28               H21-C9-C8=111.02               
H21-C9-C10=111.03              H22-C9-C8=110.84               H22-C9-C10=110.85              H22-C9-H21=106.88              
C9-C10-C6=104.93               H23-C10-C6=113.10              H23-C10-C9=111.96              H24-C10-C6=108.95              
H24-C10-C9=111.05              H24-C10-H23=106.88             

 selected dihedral angles (degree)
 ---------------------------------
C3-C2-C1-C5=345.82            C3-C2-C1-H11=183.92           H12-C2-C1-C5=172.94           H12-C2-C1-H11= 11.04          
C4-C3-C2-C1=  0.00            C4-C3-C2-H12=173.04           H13-C3-C2-C1=186.96           H13-C3-C2-H12=  0.00          
C5-C4-C3-C2= 14.16            C5-C4-C3-H13=187.06           H14-C4-C3-C2=176.07           H14-C4-C3-H13=348.97          
C4-C5-C1-C2= 21.29            C4-C5-C1-H11=183.79           H15-C5-C1-C2=147.74           H15-C5-C1-H11=310.25          
H16-C5-C1-C2=268.14           H16-C5-C1-H11= 70.64          C1-C5-C4-C3=338.72            C1-C5-C4-H14=176.21           
H15-C5-C4-C3=212.27           H15-C5-C4-H14= 49.76          H16-C5-C4-C3= 91.87           H16-C5-C4-H14=289.37          
C8-C7-C6-C10=  0.05           C8-C7-C6-H17=199.83           H18-C7-C6-C10=160.24          H18-C7-C6-H17=  0.00          
C9-C8-C7-C6=356.64            C9-C8-C7-H18=195.23           H19-C8-C7-C6=115.62           H19-C8-C7-H18=314.20          
H20-C8-C7-C6=234.32           H20-C8-C7-H18= 72.90          C10-C9-C8-C7=  5.16           C10-C9-C8-H19=247.61          
C10-C9-C8-H20=128.22          H21-C9-C8-C7=244.32           H21-C9-C8-H19=126.77          H21-C9-C8-H20=  7.38          
H22-C9-C8-C7=125.68           H22-C9-C8-H19=  8.14          H22-C9-C8-H20=248.75          C9-C10-C6-C7=  3.28           
C9-C10-C6-H17=164.73          H23-C10-C6-C7=125.59          H23-C10-C6-H17=287.04         H24-C10-C6-C7=244.29          
H24-C10-C6-H17= 45.74         C6-C10-C9-C8=354.87           C6-C10-C9-H21=115.71          C6-C10-C9-H22=234.35          
H23-C10-C9-C8=231.82          H23-C10-C9-H21=352.66         H23-C10-C9-H22=111.30         H24-C10-C9-C8=112.44          
H24-C10-C9-H21=233.27         H24-C10-C9-H22=351.91         

 CMA Distance (Angstroems)
 ---------------------------
R(CMA):  3.0617
           -------------------------------------------------
          |                Final Singlepoint                |
           -------------------------------------------------

          ...................................................
          :                      SETUP                      :
          :.................................................:
          :  # basis functions                  54          :
          :  # atomic orbitals                  54          :
          :  # shells                           34          :
          :  # electrons                        54          :
          :  max. iterations                   250          :
          :  Hamiltonian                  GFN2-xTB          :
          :  restarted?                      false          :
          :  GBSA solvation                  false          :
          :  PC potential                    false          :
          :  electronic temp.          300.0000000     K    :
          :  accuracy                    1.0000000          :
          :  -> integral cutoff          0.2500000E+02      :
          :  -> integral neglect         0.1000000E-07      :
          :  -> SCF convergence          0.1000000E-05 Eh   :
          :  -> wf. convergence          0.1000000E-03 e    :
          :  Broyden damping             0.4000000          :
          ...................................................

 iter      E             dE          RMSdq      gap      omega  full diag
   1    -28.9489884 -0.289490E+02  0.669E-05    3.72       0.0  T
   2    -28.9489884 -0.805045E-11  0.423E-05    3.72     483.1  T
   3    -28.9489884 -0.108926E-10  0.268E-05    3.72     762.3  T

   *** convergence criteria satisfied after 3 iterations ***

         #    Occupation            Energy/Eh            Energy/eV
      -------------------------------------------------------------
         1        2.0000           -0.6371665             -17.3382
       ...           ...                  ...                  ...
        21        2.0000           -0.4397059             -11.9650
        22        2.0000           -0.4359606             -11.8631
        23        2.0000           -0.4346893             -11.8285
        24        2.0000           -0.4298367             -11.6965
        25        2.0000           -0.4125556             -11.2262
        26        2.0000           -0.3641320              -9.9085
        27        2.0000           -0.3616743              -9.8417 (HOMO)
        28                         -0.2249024              -6.1199 (LUMO)
        29                         -0.1947193              -5.2986
        30                         -0.1262982              -3.4367
        31                          0.0726670               1.9774
        32                          0.0906392               2.4664
       ...                                ...                  ...
        54                          0.6827342              18.5781
      -------------------------------------------------------------
                  HL-Gap            0.1367718 Eh            3.7218 eV
             Fermi-level           -0.2932883 Eh           -7.9808 eV

 SCC (total)                   0 d,  0 h,  0 min,  0.133 sec
 SCC setup                      ...        0 min,  0.006 sec (  4.274%)
 Dispersion                     ...        0 min,  0.000 sec (  0.260%)
 classical contributions        ...        0 min,  0.008 sec (  5.683%)
 integral evaluation            ...        0 min,  0.019 sec ( 14.178%)
 iterations                     ...        0 min,  0.088 sec ( 65.688%)
 molecular gradient             ...        0 min,  0.012 sec (  8.626%)
 printout                       ...        0 min,  0.001 sec (  0.868%)

         :::::::::::::::::::::::::::::::::::::::::::::::::::::
         ::                     SUMMARY                     ::
         :::::::::::::::::::::::::::::::::::::::::::::::::::::
         :: total energy             -28.459363332989 Eh    ::
         :: gradient norm              0.000419403331 Eh/a0 ::
         :: HOMO-LUMO gap              3.721750333366 eV    ::
         ::.................................................::
         :: SCC energy               -28.948988357529 Eh    ::
         :: -> isotropic ES            0.003732018517 Eh    ::
         :: -> anisotropic ES          0.007383689758 Eh    ::
         :: -> anisotropic XC          0.019796739142 Eh    ::
         :: -> dispersion             -0.022402570765 Eh    ::
         :: repulsion energy           0.489430742055 Eh    ::
         :: add. restraining           0.000033078505 Eh    ::
         :: total charge               0.000000000000 e     ::
         :::::::::::::::::::::::::::::::::::::::::::::::::::::

           -------------------------------------------------
          |                Property Printout                |
           -------------------------------------------------

    * Orbital Energies and Occupations

         #    Occupation            Energy/Eh            Energy/eV
      -------------------------------------------------------------
         1        2.0000           -0.6371665             -17.3382
       ...           ...                  ...                  ...
        15        2.0000           -0.4705636             -12.8047
        16        2.0000           -0.4500640             -12.2469
        17        2.0000           -0.4480890             -12.1931
        18        2.0000           -0.4455531             -12.1241
        19        2.0000           -0.4422419             -12.0340
        20        2.0000           -0.4403780             -11.9833
        21        2.0000           -0.4397059             -11.9650
        22        2.0000           -0.4359606             -11.8631
        23        2.0000           -0.4346893             -11.8285
        24        2.0000           -0.4298367             -11.6965
        25        2.0000           -0.4125556             -11.2262
        26        2.0000           -0.3641320              -9.9085
        27        2.0000           -0.3616743              -9.8417 (HOMO)
        28                         -0.2249024              -6.1199 (LUMO)
        29                         -0.1947193              -5.2986
        30                         -0.1262982              -3.4367
        31                          0.0726670               1.9774
        32                          0.0906392               2.4664
        33                          0.1132387               3.0814
        34                          0.1167015               3.1756
        35                          0.1216322               3.3098
        36                          0.1238549               3.3703
        37                          0.1427936               3.8856
        38                          0.1435653               3.9066
       ...                                ...                  ...
        54                          0.6827342              18.5781
      -------------------------------------------------------------
                  HL-Gap            0.1367718 Eh            3.7218 eV
             Fermi-level           -0.2932883 Eh           -7.9808 eV

     #   Z          covCN         q      C6AA      α(0)
     1   6 C        3.050    -0.031    28.726     8.790
     2   6 C        3.015    -0.044    29.063     8.843
     3   6 C        3.015    -0.044    29.063     8.843
     4   6 C        3.050    -0.031    28.727     8.790
     5   6 C        3.898    -0.063    21.647     6.614
     6   6 C        2.953    -0.039    28.957     8.826
     7   6 C        2.953    -0.038    28.956     8.826
     8   6 C        3.831    -0.054    21.528     6.602
     9   6 C        3.823    -0.055    21.544     6.605
    10   6 C        3.831    -0.054    21.528     6.602
    11   1 H        0.926     0.025     2.659     2.550
    12   1 H        0.926     0.022     2.709     2.574
    13   1 H        0.926     0.022     2.710     2.574
    14   1 H        0.926     0.025     2.659     2.550
    15   1 H        0.925     0.063     2.161     2.299
    16   1 H        0.924     0.062     2.172     2.305
    17   1 H        0.926     0.026     2.637     2.540
    18   1 H        0.926     0.026     2.638     2.540
    19   1 H        0.924     0.032     2.564     2.504
    20   1 H        0.924     0.034     2.532     2.488
    21   1 H        0.924     0.024     2.675     2.558
    22   1 H        0.925     0.027     2.629     2.536
    23   1 H        0.924     0.034     2.532     2.488
    24   1 H        0.924     0.032     2.564     2.504

 Mol. C6AA /au·bohr⁶  :       5348.130434
 Mol. C8AA /au·bohr⁸  :     123042.849896
 Mol. α(0) /au        :        114.350549


Wiberg/Mayer (AO) data.
largest (>0.10) Wiberg bond orders for each atom

 ---------------------------------------------------------------------------
     #   Z sym  total        # sym  WBO       # sym  WBO       # sym  WBO
 ---------------------------------------------------------------------------
     1   6 C    3.985 --     2 C    1.636     5 C    1.033    11 H    0.973
                             7 C    0.158     4 C    0.133
     2   6 C    3.988 --     1 C    1.636     3 C    1.263    12 H    0.973
     3   6 C    3.988 --     4 C    1.636     2 C    1.263    13 H    0.973
     4   6 C    3.985 --     3 C    1.636     5 C    1.033    14 H    0.973
                             6 C    0.158     1 C    0.133
     5   6 C    3.997 --     1 C    1.033     4 C    1.033    15 H    0.954
                            16 H    0.918
     6   6 C    3.988 --     7 C    1.720    10 C    1.019    17 H    0.970
                             4 C    0.158
     7   6 C    3.988 --     6 C    1.720     8 C    1.019    18 H    0.970
                             1 C    0.158
     8   6 C    3.998 --     7 C    1.019     9 C    1.002    20 H    0.970
                            19 H    0.967
     9   6 C    3.998 --     8 C    1.002    10 C    1.002    22 H    0.984
                            21 H    0.981
    10   6 C    3.998 --     6 C    1.019     9 C    1.002    23 H    0.970
                            24 H    0.967
    11   1 H    0.999 --     1 C    0.973
    12   1 H    1.000 --     2 C    0.973
    13   1 H    1.000 --     3 C    0.973
    14   1 H    0.999 --     4 C    0.973
    15   1 H    0.996 --     5 C    0.954
    16   1 H    0.996 --     5 C    0.918
    17   1 H    0.999 --     6 C    0.970
    18   1 H    0.999 --     7 C    0.970
    19   1 H    0.999 --     8 C    0.967
    20   1 H    0.999 --     8 C    0.970
    21   1 H    0.999 --     9 C    0.981
    22   1 H    0.999 --     9 C    0.984
    23   1 H    0.999 --    10 C    0.970
    24   1 H    0.999 --    10 C    0.967
 ---------------------------------------------------------------------------

Topologies differ in total number of bonds
Writing topology from bond orders to xtbtopo.mol

molecular dipole:
                 x           y           z       tot (Debye)
 q only:       -0.363      -0.007       0.069
   full:       -0.383      -0.007       0.069       0.991
molecular quadrupole (traceless):
                xx          xy          yy          xz          yz          zz
 q only:       -0.019      -0.043       0.085      -1.875       0.015      -0.066
  q+dip:        0.879      -0.006       1.117      -2.818       0.147      -1.997
   full:        0.240      -0.046       0.250      -1.947       0.042      -0.490

           -------------------------------------------------
          |                Geometry Summary                 |
           -------------------------------------------------

      molecular mass/u    :      134.2185295
   center of mass at/Å    :        0.1217182       0.0088168       2.5491717
  moments of inertia/u·Å² :        0.1965165E+03   0.4436103E+03   0.4905112E+03
rotational constants/cm⁻¹ :        0.8578226E-01   0.3800100E-01   0.3436748E-01

 * 22 selected distances

     #   Z          #   Z                                           value/Å
     1   6 C        2   6 C                                       1.3610108
     2   6 C        3   6 C                                       1.4182077
     3   6 C        4   6 C                                       1.3610079
     1   6 C        5   6 C                                       1.4935394
     4   6 C        5   6 C                                       1.4935846
     6   6 C        7   6 C                                       1.3494600
     8   6 C        9   6 C                                       1.5412469
     9   6 C       10   6 C                                       1.5413061 (max)
     1   6 C       11   1 H                                       1.0760455
     2   6 C       12   1 H                                       1.0760147
     3   6 C       13   1 H                                       1.0760155
     4   6 C       14   1 H                                       1.0760179
     5   6 C       15   1 H                                       1.0827047
     5   6 C       16   1 H                                       1.0977025
     6   6 C       17   1 H                                       1.0744168 (min)
     7   6 C       18   1 H                                       1.0744374
     8   6 C       19   1 H                                       1.0936903
     8   6 C       20   1 H                                       1.0911095
     9   6 C       21   1 H                                       1.0904759
     9   6 C       22   1 H                                       1.0897148
    10   6 C       23   1 H                                       1.0911247
    10   6 C       24   1 H                                       1.0936731

 * 2 distinct bonds (by element types)

   Z      Z             #   av. dist./Å        max./Å        min./Å
   1 H    6 C          14     1.0845102     1.0977025     1.0744168
   6 C    6 C           8     1.4449204     1.5413061     1.3494600


optimized geometry written to: xtbopt.xyz


           -------------------------------------------------
          | TOTAL ENERGY              -28.459363332989 Eh   |
          | GRADIENT NORM               0.000419403331 Eh/α |
          | HOMO-LUMO GAP               3.721750333366 eV   |
           -------------------------------------------------

------------------------------------------------------------------------
 * finished run on 2022/09/06 at 17:49:01.337     
------------------------------------------------------------------------
 total:
 * wall-time:     0 d,  0 h,  0 min,  1.801 sec
 *  cpu-time:     0 d,  0 h,  1 min,  4.424 sec
 * ratio c/w:    35.780 speedup
 SCF:
 * wall-time:     0 d,  0 h,  0 min,  0.149 sec
 *  cpu-time:     0 d,  0 h,  0 min,  5.003 sec
 * ratio c/w:    33.481 speedup
 ANC optimizer:
 * wall-time:     0 d,  0 h,  0 min,  1.537 sec
 *  cpu-time:     0 d,  0 h,  0 min, 54.278 sec
 * ratio c/w:    35.315 speedup

