24
 energy: -28.459363332989 gnorm: 0.000419403331 xtb: 6.3.3 (7355c4f)
C         0.11871040683769    1.22041868822861    1.28555741772677
C         1.28616283883985    0.81927727785541    0.71241623172182
C         1.30149040111812   -0.59719793494366    0.64403353699723
C         0.14351470041582   -1.07687488237502    1.17445292654036
C        -0.81937826491775    0.05830018639896    1.29696625703199
C         0.75346134003286   -0.70289631041304    3.41608297888689
C         0.74132369652277    0.64496784770864    3.48055999642108
C        -0.42057943184773    1.15502731543779    4.28889373335698
C        -1.22072827180149   -0.10507206689586    4.67275997743288
C        -0.39918766096792   -1.30839728201348    4.17006332293224
H        -0.20307127631135    2.23882805903459    1.41660220876070
H         2.12038650434780    1.45095645236121    0.46169758805066
H         2.14896769813542   -1.18348516916242    0.33442261430174
H        -0.15612300290630   -2.10984151318292    1.20626170248461
H        -1.51167458978082    0.01069480244289    2.12805535828211
H        -1.41892208086687    0.09617869460293    0.37823707366784
H         1.60813953277443   -1.30615655999681    3.17118762267158
H         1.58494648844539    1.28387348732586    3.29477561846272
H        -0.03810348946221    1.66361004260870    5.17839591381132
H        -1.03313762264865    1.87872775932747    3.74893992997295
H        -2.21251659366612   -0.09175212582564    4.21964161938281
H        -1.36626331234770   -0.15834912482413    5.75139773624490
H        -0.99949342433341   -1.98680875885374    3.56183319314751
H        -0.00792458561065   -1.89402688484662    5.00676644171144
