24
 energy: -28.454770227638 gnorm: 0.000725252884 xtb: 6.3.3 (7355c4f)
C         0.12594406019251    1.21798731473856    1.28123714654681
C         1.27487537316767    0.83476195570204    0.72383341279929
C         1.29176989924738   -0.61146216252895    0.65409676899948
C         0.15274977842844   -1.07347616789671    1.16935242336891
C        -0.81117948644628    0.05419443152945    1.29561916163712
C         0.74751522827614   -0.69730434573098    3.41692291152638
C         0.73740528452716    0.63750481597294    3.48030301069411
C        -0.41553351177192    1.14283775879731    4.28245149934299
C        -1.20508990136123   -0.10384214677852    4.66287259712001
C        -0.39813684160506   -1.29346041813880    4.16396590561765
H        -0.20774578300185    2.23896123257593    1.42541057290721
H         2.12163798012064    1.45838702477457    0.47591458600865
H         2.15168388410666   -1.18712375562091    0.34861314800413
H        -0.15306521467621   -2.11073227871358    1.21396656167039
H        -1.51595109194893    0.00520433887166    2.14225412289251
H        -1.42421494452509    0.09311404508846    0.37637241391686
H         1.60145541050248   -1.30897616168670    3.16184317684458
H         1.58252278788360    1.28370158451426    3.28467131832498
H        -0.03194146941020    1.66497286557704    5.17474467811714
H        -1.03663573442480    1.88310358150442    3.73633720255897
H        -2.21568483391194   -0.08875707624605    4.21803371908286
H        -1.35772566137732   -0.15792087197811    5.76214433503223
H        -1.00729600859327   -1.98560726124234    3.54752549399922
H        -0.00735920339740   -1.89606630308527    5.00151483298866
