Job Start Time: Tue Sep  6 12:04:28 MDT 2022
SLURM Job ID: 71042
SLURM Job Name: Strychnine_rdkit_conf_1
 Entering Gaussian System, Link 0=/opt/apps/Gaussian/G16C/g16/g16
 Initial command:
 /opt/apps/Gaussian/G16C/g16/l1.exe "/tmp/Gau-4075096.inp" -scrdir="/tmp/"
 Entering Link 1 = /opt/apps/Gaussian/G16C/g16/l1.exe PID=   4075097.
  
 Copyright (c) 1988-2019, Gaussian, Inc.  All Rights Reserved.
  
 This is part of the Gaussian(R) 16 program.  It is based on
 the Gaussian(R) 09 system (copyright 2009, Gaussian, Inc.),
 the Gaussian(R) 03 system (copyright 2003, Gaussian, Inc.),
 the Gaussian(R) 98 system (copyright 1998, Gaussian, Inc.),
 the Gaussian(R) 94 system (copyright 1995, Gaussian, Inc.),
 the Gaussian 92(TM) system (copyright 1992, Gaussian, Inc.),
 the Gaussian 90(TM) system (copyright 1990, Gaussian, Inc.),
 the Gaussian 88(TM) system (copyright 1988, Gaussian, Inc.),
 the Gaussian 86(TM) system (copyright 1986, Carnegie Mellon
 University), and the Gaussian 82(TM) system (copyright 1983,
 Carnegie Mellon University). Gaussian is a federally registered
 trademark of Gaussian, Inc.
  
 This software contains proprietary and confidential information,
 including trade secrets, belonging to Gaussian, Inc.
  
 This software is provided under written license and may be
 used, copied, transmitted, or stored only in accord with that
 written license.
  
 The following legend is applicable only to US Government
 contracts under FAR:
  
                    RESTRICTED RIGHTS LEGEND
  
 Use, reproduction and disclosure by the US Government is
 subject to restrictions as set forth in subparagraphs (a)
 and (c) of the Commercial Computer Software - Restricted
 Rights clause in FAR 52.227-19.
  
 Gaussian, Inc.
 340 Quinnipiac St., Bldg. 40, Wallingford CT 06492
  
  
 ---------------------------------------------------------------
 Warning -- This program may not be used in any manner that
 competes with the business of Gaussian, Inc. or will provide
 assistance to any competitor of Gaussian, Inc.  The licensee
 of this program is prohibited from giving any competitor of
 Gaussian, Inc. access to this program.  By using this program,
 the user acknowledges that Gaussian, Inc. is engaged in the
 business of creating and licensing software in the field of
 computational chemistry and represents and warrants to the
 licensee that it is not a competitor of Gaussian, Inc. and that
 it will not use this program in any manner prohibited above.
 ---------------------------------------------------------------
  

 Cite this work as:
 Gaussian 16, Revision C.01,
 M. J. Frisch, G. W. Trucks, H. B. Schlegel, G. E. Scuseria, 
 M. A. Robb, J. R. Cheeseman, G. Scalmani, V. Barone, 
 G. A. Petersson, H. Nakatsuji, X. Li, M. Caricato, A. V. Marenich, 
 J. Bloino, B. G. Janesko, R. Gomperts, B. Mennucci, H. P. Hratchian, 
 J. V. Ortiz, A. F. Izmaylov, J. L. Sonnenberg, D. Williams-Young, 
 F. Ding, F. Lipparini, F. Egidi, J. Goings, B. Peng, A. Petrone, 
 T. Henderson, D. Ranasinghe, V. G. Zakrzewski, J. Gao, N. Rega, 
 G. Zheng, W. Liang, M. Hada, M. Ehara, K. Toyota, R. Fukuda, 
 J. Hasegawa, M. Ishida, T. Nakajima, Y. Honda, O. Kitao, H. Nakai, 
 T. Vreven, K. Throssell, J. A. Montgomery, Jr., J. E. Peralta, 
 F. Ogliaro, M. J. Bearpark, J. J. Heyd, E. N. Brothers, K. N. Kudin, 
 V. N. Staroverov, T. A. Keith, R. Kobayashi, J. Normand, 
 K. Raghavachari, A. P. Rendell, J. C. Burant, S. S. Iyengar, 
 J. Tomasi, M. Cossi, J. M. Millam, M. Klene, C. Adamo, R. Cammi, 
 J. W. Ochterski, R. L. Martin, K. Morokuma, O. Farkas, 
 J. B. Foresman, and D. J. Fox, Gaussian, Inc., Wallingford CT, 2019.
 
 ******************************************
 Gaussian 16:  AS64L-G16RevC.01  3-Jul-2019
                 6-Sep-2022 
 ******************************************
 %nprocshared=12
 Will use up to   12 processors via shared memory.
 %mem=24GB
 ----------------------------
 # B3LYP/6-31+G(d,p) opt freq
 ----------------------------
 1/18=20,19=15,26=3,38=1/1,3;
 2/9=110,12=2,17=6,18=5,40=1/2;
 3/5=1,6=6,7=111,11=2,25=1,30=1,71=1,74=-5/1,2,3;
 4//1;
 5/5=2,38=5/2;
 6/7=2,8=2,9=2,10=2,28=1/1;
 7//1,2,3,16;
 1/18=20,19=15,26=3/3(2);
 2/9=110/2;
 99//99;
 2/9=110/2;
 3/5=1,6=6,7=111,11=2,25=1,30=1,71=1,74=-5/1,2,3;
 4/5=5,16=3,69=1/1;
 5/5=2,38=5/2;
 7//1,2,3,16;
 1/18=20,19=15,26=3/3(-5);
 2/9=110/2;
 6/7=2,8=2,9=2,10=2,19=2,28=1/1;
 99/9=1/99;
 -----------------------
 Strychnine_rdkit_conf_1
 -----------------------
 Symbolic Z-matrix:
 Charge =  0 Multiplicity = 1
 C                    -1.1941   -1.7493   -1.2876 
 C                     0.0357   -2.6341   -1.1891 
 N                     0.3414   -2.7236    0.2462 
 C                     1.7825   -2.6892    0.5176 
 C                     2.3263   -1.2793    0.4999 
 C                     3.386    -0.9272   -0.2487 
 C                     3.8763    0.4755   -0.3665 
 O                     2.8866    1.2299   -1.0522 
 C                     1.9215    1.8723   -0.2074 
 C                     1.1568    2.8519   -1.1342 
 C                    -0.3653    2.8287   -1.0376 
 O                    -1.0095    3.8651   -1.1884 
 N                    -0.9049    1.5804   -0.7863 
 C                    -0.0483    0.4099   -0.5409 
 C                     0.9657    0.8907    0.5066 
 C                     1.5609   -0.2633    1.325 
 C                     0.3787   -0.9532    2.0236 
 C                    -0.4454   -1.6875    0.9668 
 C                    -1.       -0.7596   -0.1318 
 C                    -2.2828   -0.014     0.1365 
 C                    -3.4595   -0.4961    0.6959 
 C                    -4.5508    0.3677    0.8066 
 C                    -4.46      1.6922    0.3564 
 C                    -3.2755    2.1728   -0.2075 
 C                    -2.1984    1.3099   -0.3126 
 H                    -1.2764   -1.2657   -2.2673 
 H                    -2.0971   -2.3572   -1.1428 
 H                     0.8533   -2.1817   -1.7634 
 H                    -0.1526   -3.6273   -1.6091 
 H                     2.315    -3.34     -0.1878 
 H                     1.9703   -3.1283    1.5058 
 H                     3.9019   -1.6709   -0.8506 
 H                     4.7795    0.4828   -0.9857 
 H                     4.144     0.9161    0.6004 
 H                     2.4654    2.46      0.5436 
 H                     1.4812    3.8714   -0.8897 
 H                     1.4137    2.6868   -2.1882 
 H                     0.4658    0.1772   -1.4829 
 H                     0.4302    1.513     1.2436 
 H                     2.2233    0.1421    2.1007 
 H                     0.7368   -1.6536    2.7894 
 H                    -0.2453   -0.2236    2.5548 
 H                    -1.2662   -2.2107    1.4726 
 H                    -3.5465   -1.5255    1.0299 
 H                    -5.4827    0.01      1.2384 
 H                    -5.3186    2.3536    0.446 
 H                    -3.2189    3.2012   -0.5482 
 

 GradGradGradGradGradGradGradGradGradGradGradGradGradGradGradGradGradGrad
 Berny optimization.
 Initialization pass.
                           ----------------------------
                           !    Initial Parameters    !
                           ! (Angstroms and Degrees)  !
 --------------------------                            --------------------------
 ! Name  Definition              Value          Derivative Info.                !
 --------------------------------------------------------------------------------
 ! R1    R(1,2)                  1.5182         estimate D2E/DX2                !
 ! R2    R(1,19)                 1.534          estimate D2E/DX2                !
 ! R3    R(1,26)                 1.0957         estimate D2E/DX2                !
 ! R4    R(1,27)                 1.0981         estimate D2E/DX2                !
 ! R5    R(2,3)                  1.4702         estimate D2E/DX2                !
 ! R6    R(2,28)                 1.0968         estimate D2E/DX2                !
 ! R7    R(2,29)                 1.0947         estimate D2E/DX2                !
 ! R8    R(3,4)                  1.4668         estimate D2E/DX2                !
 ! R9    R(3,18)                 1.4872         estimate D2E/DX2                !
 ! R10   R(4,5)                  1.5112         estimate D2E/DX2                !
 ! R11   R(4,30)                 1.0976         estimate D2E/DX2                !
 ! R12   R(4,31)                 1.0976         estimate D2E/DX2                !
 ! R13   R(5,6)                  1.3444         estimate D2E/DX2                !
 ! R14   R(5,16)                 1.5162         estimate D2E/DX2                !
 ! R15   R(6,7)                  1.4906         estimate D2E/DX2                !
 ! R16   R(6,32)                 1.087          estimate D2E/DX2                !
 ! R17   R(7,8)                  1.4208         estimate D2E/DX2                !
 ! R18   R(7,33)                 1.0951         estimate D2E/DX2                !
 ! R19   R(7,34)                 1.0958         estimate D2E/DX2                !
 ! R20   R(8,9)                  1.4345         estimate D2E/DX2                !
 ! R21   R(9,10)                 1.5503         estimate D2E/DX2                !
 ! R22   R(9,15)                 1.545          estimate D2E/DX2                !
 ! R23   R(9,35)                 1.0978         estimate D2E/DX2                !
 ! R24   R(10,11)                1.5253         estimate D2E/DX2                !
 ! R25   R(10,36)                1.0974         estimate D2E/DX2                !
 ! R26   R(10,37)                1.0973         estimate D2E/DX2                !
 ! R27   R(11,12)                1.2296         estimate D2E/DX2                !
 ! R28   R(11,13)                1.383          estimate D2E/DX2                !
 ! R29   R(13,14)                1.4711         estimate D2E/DX2                !
 ! R30   R(13,25)                1.4038         estimate D2E/DX2                !
 ! R31   R(14,15)                1.5351         estimate D2E/DX2                !
 ! R32   R(14,19)                1.5623         estimate D2E/DX2                !
 ! R33   R(14,38)                1.0981         estimate D2E/DX2                !
 ! R34   R(15,16)                1.5348         estimate D2E/DX2                !
 ! R35   R(15,39)                1.1033         estimate D2E/DX2                !
 ! R36   R(16,17)                1.5368         estimate D2E/DX2                !
 ! R37   R(16,40)                1.0976         estimate D2E/DX2                !
 ! R38   R(17,18)                1.5281         estimate D2E/DX2                !
 ! R39   R(17,41)                1.0978         estimate D2E/DX2                !
 ! R40   R(17,42)                1.0972         estimate D2E/DX2                !
 ! R41   R(18,19)                1.5413         estimate D2E/DX2                !
 ! R42   R(18,43)                1.0969         estimate D2E/DX2                !
 ! R43   R(19,20)                1.5078         estimate D2E/DX2                !
 ! R44   R(20,21)                1.3892         estimate D2E/DX2                !
 ! R45   R(20,25)                1.4005         estimate D2E/DX2                !
 ! R46   R(21,22)                1.3962         estimate D2E/DX2                !
 ! R47   R(21,44)                1.0857         estimate D2E/DX2                !
 ! R48   R(22,23)                1.4019         estimate D2E/DX2                !
 ! R49   R(22,45)                1.0876         estimate D2E/DX2                !
 ! R50   R(23,24)                1.3971         estimate D2E/DX2                !
 ! R51   R(23,46)                1.0875         estimate D2E/DX2                !
 ! R52   R(24,25)                1.3841         estimate D2E/DX2                !
 ! R53   R(24,47)                1.0848         estimate D2E/DX2                !
 ! A1    A(2,1,19)             102.981          estimate D2E/DX2                !
 ! A2    A(2,1,26)             112.0917         estimate D2E/DX2                !
 ! A3    A(2,1,27)             109.5674         estimate D2E/DX2                !
 ! A4    A(19,1,26)            113.4821         estimate D2E/DX2                !
 ! A5    A(19,1,27)            111.2142         estimate D2E/DX2                !
 ! A6    A(26,1,27)            107.486          estimate D2E/DX2                !
 ! A7    A(1,2,3)              105.5003         estimate D2E/DX2                !
 ! A8    A(1,2,28)             109.2369         estimate D2E/DX2                !
 ! A9    A(1,2,29)             111.3791         estimate D2E/DX2                !
 ! A10   A(3,2,28)             112.4137         estimate D2E/DX2                !
 ! A11   A(3,2,29)             110.7995         estimate D2E/DX2                !
 ! A12   A(28,2,29)            107.5519         estimate D2E/DX2                !
 ! A13   A(2,3,4)              112.5495         estimate D2E/DX2                !
 ! A14   A(2,3,18)             108.6997         estimate D2E/DX2                !
 ! A15   A(4,3,18)             114.4419         estimate D2E/DX2                !
 ! A16   A(3,4,5)              111.9153         estimate D2E/DX2                !
 ! A17   A(3,4,30)             110.1102         estimate D2E/DX2                !
 ! A18   A(3,4,31)             108.9846         estimate D2E/DX2                !
 ! A19   A(5,4,30)             111.7818         estimate D2E/DX2                !
 ! A20   A(5,4,31)             108.7972         estimate D2E/DX2                !
 ! A21   A(30,4,31)            104.9764         estimate D2E/DX2                !
 ! A22   A(4,5,6)              122.3104         estimate D2E/DX2                !
 ! A23   A(4,5,16)             115.9212         estimate D2E/DX2                !
 ! A24   A(6,5,16)             121.6979         estimate D2E/DX2                !
 ! A25   A(5,6,7)              123.3499         estimate D2E/DX2                !
 ! A26   A(5,6,32)             120.2162         estimate D2E/DX2                !
 ! A27   A(7,6,32)             116.3576         estimate D2E/DX2                !
 ! A28   A(6,7,8)              107.9789         estimate D2E/DX2                !
 ! A29   A(6,7,33)             108.7991         estimate D2E/DX2                !
 ! A30   A(6,7,34)             112.8931         estimate D2E/DX2                !
 ! A31   A(8,7,33)             107.3424         estimate D2E/DX2                !
 ! A32   A(8,7,34)             112.4902         estimate D2E/DX2                !
 ! A33   A(33,7,34)            107.1432         estimate D2E/DX2                !
 ! A34   A(7,8,9)              114.9729         estimate D2E/DX2                !
 ! A35   A(8,9,10)             105.234          estimate D2E/DX2                !
 ! A36   A(8,9,15)             113.8197         estimate D2E/DX2                !
 ! A37   A(8,9,35)             108.016          estimate D2E/DX2                !
 ! A38   A(10,9,15)            111.876          estimate D2E/DX2                !
 ! A39   A(10,9,35)            108.3654         estimate D2E/DX2                !
 ! A40   A(15,9,35)            109.2982         estimate D2E/DX2                !
 ! A41   A(9,10,11)            116.4073         estimate D2E/DX2                !
 ! A42   A(9,10,36)            107.9393         estimate D2E/DX2                !
 ! A43   A(9,10,37)            111.3255         estimate D2E/DX2                !
 ! A44   A(11,10,36)           107.1568         estimate D2E/DX2                !
 ! A45   A(11,10,37)           106.9869         estimate D2E/DX2                !
 ! A46   A(36,10,37)           106.5322         estimate D2E/DX2                !
 ! A47   A(10,11,12)           120.147          estimate D2E/DX2                !
 ! A48   A(10,11,13)           114.4933         estimate D2E/DX2                !
 ! A49   A(12,11,13)           125.358          estimate D2E/DX2                !
 ! A50   A(11,13,14)           121.4206         estimate D2E/DX2                !
 ! A51   A(11,13,25)           126.4955         estimate D2E/DX2                !
 ! A52   A(14,13,25)           109.0825         estimate D2E/DX2                !
 ! A53   A(13,14,15)           104.433          estimate D2E/DX2                !
 ! A54   A(13,14,19)           106.5343         estimate D2E/DX2                !
 ! A55   A(13,14,38)           107.3451         estimate D2E/DX2                !
 ! A56   A(15,14,19)           117.2673         estimate D2E/DX2                !
 ! A57   A(15,14,38)           110.0282         estimate D2E/DX2                !
 ! A58   A(19,14,38)           110.5604         estimate D2E/DX2                !
 ! A59   A(9,15,14)            106.9949         estimate D2E/DX2                !
 ! A60   A(9,15,16)            118.9612         estimate D2E/DX2                !
 ! A61   A(9,15,39)            104.5149         estimate D2E/DX2                !
 ! A62   A(14,15,16)           112.6129         estimate D2E/DX2                !
 ! A63   A(14,15,39)           108.1725         estimate D2E/DX2                !
 ! A64   A(16,15,39)           104.8401         estimate D2E/DX2                !
 ! A65   A(5,16,15)            114.1681         estimate D2E/DX2                !
 ! A66   A(5,16,17)            109.5666         estimate D2E/DX2                !
 ! A67   A(5,16,40)            109.1123         estimate D2E/DX2                !
 ! A68   A(15,16,17)           106.3565         estimate D2E/DX2                !
 ! A69   A(15,16,40)           109.4599         estimate D2E/DX2                !
 ! A70   A(17,16,40)           107.9863         estimate D2E/DX2                !
 ! A71   A(16,17,18)           108.4337         estimate D2E/DX2                !
 ! A72   A(16,17,41)           110.6456         estimate D2E/DX2                !
 ! A73   A(16,17,42)           111.043          estimate D2E/DX2                !
 ! A74   A(18,17,41)           110.5943         estimate D2E/DX2                !
 ! A75   A(18,17,42)           110.3431         estimate D2E/DX2                !
 ! A76   A(41,17,42)           105.785          estimate D2E/DX2                !
 ! A77   A(3,18,17)            112.6154         estimate D2E/DX2                !
 ! A78   A(3,18,19)            105.3325         estimate D2E/DX2                !
 ! A79   A(3,18,43)            106.678          estimate D2E/DX2                !
 ! A80   A(17,18,19)           113.4347         estimate D2E/DX2                !
 ! A81   A(17,18,43)           108.2907         estimate D2E/DX2                !
 ! A82   A(19,18,43)           110.2774         estimate D2E/DX2                !
 ! A83   A(1,19,14)            111.2691         estimate D2E/DX2                !
 ! A84   A(1,19,18)            101.1963         estimate D2E/DX2                !
 ! A85   A(1,19,20)            110.2101         estimate D2E/DX2                !
 ! A86   A(14,19,18)           114.7158         estimate D2E/DX2                !
 ! A87   A(14,19,20)           101.2266         estimate D2E/DX2                !
 ! A88   A(18,19,20)           118.49           estimate D2E/DX2                !
 ! A89   A(19,20,21)           128.3647         estimate D2E/DX2                !
 ! A90   A(19,20,25)           111.0452         estimate D2E/DX2                !
 ! A91   A(21,20,25)           120.5438         estimate D2E/DX2                !
 ! A92   A(20,21,22)           118.6382         estimate D2E/DX2                !
 ! A93   A(20,21,44)           121.3838         estimate D2E/DX2                !
 ! A94   A(22,21,44)           119.9714         estimate D2E/DX2                !
 ! A95   A(21,22,23)           120.5608         estimate D2E/DX2                !
 ! A96   A(21,22,45)           119.8505         estimate D2E/DX2                !
 ! A97   A(23,22,45)           119.5871         estimate D2E/DX2                !
 ! A98   A(22,23,24)           120.6328         estimate D2E/DX2                !
 ! A99   A(22,23,46)           119.803          estimate D2E/DX2                !
 ! A100  A(24,23,46)           119.5641         estimate D2E/DX2                !
 ! A101  A(23,24,25)           118.4207         estimate D2E/DX2                !
 ! A102  A(23,24,47)           119.807          estimate D2E/DX2                !
 ! A103  A(25,24,47)           121.7723         estimate D2E/DX2                !
 ! A104  A(13,25,20)           110.2351         estimate D2E/DX2                !
 ! A105  A(13,25,24)           128.5008         estimate D2E/DX2                !
 ! A106  A(20,25,24)           121.2027         estimate D2E/DX2                !
 ! D1    D(19,1,2,3)            33.5422         estimate D2E/DX2                !
 ! D2    D(19,1,2,28)          -87.5126         estimate D2E/DX2                !
 ! D3    D(19,1,2,29)          153.8271         estimate D2E/DX2                !
 ! D4    D(26,1,2,3)           155.8778         estimate D2E/DX2                !
 ! D5    D(26,1,2,28)           34.8229         estimate D2E/DX2                !
 ! D6    D(26,1,2,29)          -83.8373         estimate D2E/DX2                !
 ! D7    D(27,1,2,3)           -84.885          estimate D2E/DX2                !
 ! D8    D(27,1,2,28)          154.0601         estimate D2E/DX2                !
 ! D9    D(27,1,2,29)           35.3999         estimate D2E/DX2                !
 ! D10   D(2,1,19,14)           82.2996         estimate D2E/DX2                !
 ! D11   D(2,1,19,18)          -40.0059         estimate D2E/DX2                !
 ! D12   D(2,1,19,20)         -166.2359         estimate D2E/DX2                !
 ! D13   D(26,1,19,14)         -39.0963         estimate D2E/DX2                !
 ! D14   D(26,1,19,18)        -161.4018         estimate D2E/DX2                !
 ! D15   D(26,1,19,20)          72.3682         estimate D2E/DX2                !
 ! D16   D(27,1,19,14)        -160.4319         estimate D2E/DX2                !
 ! D17   D(27,1,19,18)          77.2626         estimate D2E/DX2                !
 ! D18   D(27,1,19,20)         -48.9674         estimate D2E/DX2                !
 ! D19   D(1,2,3,4)           -141.0044         estimate D2E/DX2                !
 ! D20   D(1,2,3,18)           -13.1589         estimate D2E/DX2                !
 ! D21   D(28,2,3,4)           -22.042          estimate D2E/DX2                !
 ! D22   D(28,2,3,18)          105.8035         estimate D2E/DX2                !
 ! D23   D(29,2,3,4)            98.3308         estimate D2E/DX2                !
 ! D24   D(29,2,3,18)         -133.8237         estimate D2E/DX2                !
 ! D25   D(2,3,4,5)             80.8306         estimate D2E/DX2                !
 ! D26   D(2,3,4,30)           -44.1466         estimate D2E/DX2                !
 ! D27   D(2,3,4,31)          -158.7915         estimate D2E/DX2                !
 ! D28   D(18,3,4,5)           -43.9226         estimate D2E/DX2                !
 ! D29   D(18,3,4,30)         -168.8998         estimate D2E/DX2                !
 ! D30   D(18,3,4,31)           76.4553         estimate D2E/DX2                !
 ! D31   D(2,3,18,17)         -136.546          estimate D2E/DX2                !
 ! D32   D(2,3,18,19)          -12.4246         estimate D2E/DX2                !
 ! D33   D(2,3,18,43)          104.7872         estimate D2E/DX2                !
 ! D34   D(4,3,18,17)           -9.7803         estimate D2E/DX2                !
 ! D35   D(4,3,18,19)          114.3412         estimate D2E/DX2                !
 ! D36   D(4,3,18,43)         -128.4471         estimate D2E/DX2                !
 ! D37   D(3,4,5,6)           -127.5655         estimate D2E/DX2                !
 ! D38   D(3,4,5,16)            49.4273         estimate D2E/DX2                !
 ! D39   D(30,4,5,6)            -3.5189         estimate D2E/DX2                !
 ! D40   D(30,4,5,16)          173.4738         estimate D2E/DX2                !
 ! D41   D(31,4,5,6)           111.9475         estimate D2E/DX2                !
 ! D42   D(31,4,5,16)          -71.0597         estimate D2E/DX2                !
 ! D43   D(4,5,6,7)            175.0703         estimate D2E/DX2                !
 ! D44   D(4,5,6,32)            -1.6365         estimate D2E/DX2                !
 ! D45   D(16,5,6,7)            -1.7507         estimate D2E/DX2                !
 ! D46   D(16,5,6,32)         -178.4574         estimate D2E/DX2                !
 ! D47   D(4,5,16,15)         -118.3129         estimate D2E/DX2                !
 ! D48   D(4,5,16,17)            0.8361         estimate D2E/DX2                !
 ! D49   D(4,5,16,40)          118.8701         estimate D2E/DX2                !
 ! D50   D(6,5,16,15)           58.6999         estimate D2E/DX2                !
 ! D51   D(6,5,16,17)          177.8489         estimate D2E/DX2                !
 ! D52   D(6,5,16,40)          -64.1171         estimate D2E/DX2                !
 ! D53   D(5,6,7,8)            -66.9602         estimate D2E/DX2                !
 ! D54   D(5,6,7,33)           176.8394         estimate D2E/DX2                !
 ! D55   D(5,6,7,34)            58.0402         estimate D2E/DX2                !
 ! D56   D(32,6,7,8)           109.8639         estimate D2E/DX2                !
 ! D57   D(32,6,7,33)           -6.3365         estimate D2E/DX2                !
 ! D58   D(32,6,7,34)         -125.1356         estimate D2E/DX2                !
 ! D59   D(6,7,8,9)             91.546          estimate D2E/DX2                !
 ! D60   D(33,7,8,9)          -151.3074         estimate D2E/DX2                !
 ! D61   D(34,7,8,9)           -33.6939         estimate D2E/DX2                !
 ! D62   D(7,8,9,10)           168.3607         estimate D2E/DX2                !
 ! D63   D(7,8,9,15)           -68.7956         estimate D2E/DX2                !
 ! D64   D(7,8,9,35)            52.7689         estimate D2E/DX2                !
 ! D65   D(8,9,10,11)          132.6025         estimate D2E/DX2                !
 ! D66   D(8,9,10,36)         -106.9369         estimate D2E/DX2                !
 ! D67   D(8,9,10,37)            9.6447         estimate D2E/DX2                !
 ! D68   D(15,9,10,11)           8.5197         estimate D2E/DX2                !
 ! D69   D(15,9,10,36)         128.9803         estimate D2E/DX2                !
 ! D70   D(15,9,10,37)        -114.4382         estimate D2E/DX2                !
 ! D71   D(35,9,10,11)        -112.0467         estimate D2E/DX2                !
 ! D72   D(35,9,10,36)           8.4139         estimate D2E/DX2                !
 ! D73   D(35,9,10,37)         124.9954         estimate D2E/DX2                !
 ! D74   D(8,9,15,14)          -75.7226         estimate D2E/DX2                !
 ! D75   D(8,9,15,16)           53.2297         estimate D2E/DX2                !
 ! D76   D(8,9,15,39)          169.6952         estimate D2E/DX2                !
 ! D77   D(10,9,15,14)          43.4058         estimate D2E/DX2                !
 ! D78   D(10,9,15,16)         172.358          estimate D2E/DX2                !
 ! D79   D(10,9,15,39)         -71.1764         estimate D2E/DX2                !
 ! D80   D(35,9,15,14)         163.4276         estimate D2E/DX2                !
 ! D81   D(35,9,15,16)         -67.6201         estimate D2E/DX2                !
 ! D82   D(35,9,15,39)          48.8454         estimate D2E/DX2                !
 ! D83   D(9,10,11,12)         145.8559         estimate D2E/DX2                !
 ! D84   D(9,10,11,13)         -34.5977         estimate D2E/DX2                !
 ! D85   D(36,10,11,12)         24.978          estimate D2E/DX2                !
 ! D86   D(36,10,11,13)       -155.4756         estimate D2E/DX2                !
 ! D87   D(37,10,11,12)        -88.957          estimate D2E/DX2                !
 ! D88   D(37,10,11,13)         90.5893         estimate D2E/DX2                !
 ! D89   D(10,11,13,14)          4.1594         estimate D2E/DX2                !
 ! D90   D(10,11,13,25)        162.3649         estimate D2E/DX2                !
 ! D91   D(12,11,13,14)       -176.3216         estimate D2E/DX2                !
 ! D92   D(12,11,13,25)        -18.116          estimate D2E/DX2                !
 ! D93   D(11,13,14,15)         48.6144         estimate D2E/DX2                !
 ! D94   D(11,13,14,19)        173.3565         estimate D2E/DX2                !
 ! D95   D(11,13,14,38)        -68.1855         estimate D2E/DX2                !
 ! D96   D(25,13,14,15)       -112.9748         estimate D2E/DX2                !
 ! D97   D(25,13,14,19)         11.7672         estimate D2E/DX2                !
 ! D98   D(25,13,14,38)        130.2253         estimate D2E/DX2                !
 ! D99   D(11,13,25,20)       -165.2121         estimate D2E/DX2                !
 ! D100  D(11,13,25,24)         11.9277         estimate D2E/DX2                !
 ! D101  D(14,13,25,20)         -4.8003         estimate D2E/DX2                !
 ! D102  D(14,13,25,24)        172.3395         estimate D2E/DX2                !
 ! D103  D(13,14,15,9)         -71.4104         estimate D2E/DX2                !
 ! D104  D(13,14,15,16)        156.0733         estimate D2E/DX2                !
 ! D105  D(13,14,15,39)         40.6855         estimate D2E/DX2                !
 ! D106  D(19,14,15,9)         170.9923         estimate D2E/DX2                !
 ! D107  D(19,14,15,16)         38.4761         estimate D2E/DX2                !
 ! D108  D(19,14,15,39)        -76.9117         estimate D2E/DX2                !
 ! D109  D(38,14,15,9)          43.5174         estimate D2E/DX2                !
 ! D110  D(38,14,15,16)        -88.9989         estimate D2E/DX2                !
 ! D111  D(38,14,15,39)        155.6134         estimate D2E/DX2                !
 ! D112  D(13,14,19,1)         103.6456         estimate D2E/DX2                !
 ! D113  D(13,14,19,18)       -142.2409         estimate D2E/DX2                !
 ! D114  D(13,14,19,20)        -13.4328         estimate D2E/DX2                !
 ! D115  D(15,14,19,1)        -139.8983         estimate D2E/DX2                !
 ! D116  D(15,14,19,18)        -25.7848         estimate D2E/DX2                !
 ! D117  D(15,14,19,20)        103.0233         estimate D2E/DX2                !
 ! D118  D(38,14,19,1)         -12.6813         estimate D2E/DX2                !
 ! D119  D(38,14,19,18)        101.4322         estimate D2E/DX2                !
 ! D120  D(38,14,19,20)       -129.7597         estimate D2E/DX2                !
 ! D121  D(9,15,16,5)          -65.0839         estimate D2E/DX2                !
 ! D122  D(9,15,16,17)         173.9679         estimate D2E/DX2                !
 ! D123  D(9,15,16,40)          57.5438         estimate D2E/DX2                !
 ! D124  D(14,15,16,5)          61.2435         estimate D2E/DX2                !
 ! D125  D(14,15,16,17)        -59.7047         estimate D2E/DX2                !
 ! D126  D(14,15,16,40)       -176.1288         estimate D2E/DX2                !
 ! D127  D(39,15,16,5)         178.6224         estimate D2E/DX2                !
 ! D128  D(39,15,16,17)         57.6741         estimate D2E/DX2                !
 ! D129  D(39,15,16,40)        -58.7499         estimate D2E/DX2                !
 ! D130  D(5,16,17,18)         -53.4776         estimate D2E/DX2                !
 ! D131  D(5,16,17,41)          67.9757         estimate D2E/DX2                !
 ! D132  D(5,16,17,42)        -174.8675         estimate D2E/DX2                !
 ! D133  D(15,16,17,18)         70.3812         estimate D2E/DX2                !
 ! D134  D(15,16,17,41)       -168.1655         estimate D2E/DX2                !
 ! D135  D(15,16,17,42)        -51.0088         estimate D2E/DX2                !
 ! D136  D(40,16,17,18)       -172.2109         estimate D2E/DX2                !
 ! D137  D(40,16,17,41)        -50.7576         estimate D2E/DX2                !
 ! D138  D(40,16,17,42)         66.3991         estimate D2E/DX2                !
 ! D139  D(16,17,18,3)          60.1348         estimate D2E/DX2                !
 ! D140  D(16,17,18,19)        -59.3877         estimate D2E/DX2                !
 ! D141  D(16,17,18,43)        177.8539         estimate D2E/DX2                !
 ! D142  D(41,17,18,3)         -61.35           estimate D2E/DX2                !
 ! D143  D(41,17,18,19)        179.1274         estimate D2E/DX2                !
 ! D144  D(41,17,18,43)         56.369          estimate D2E/DX2                !
 ! D145  D(42,17,18,3)        -178.0456         estimate D2E/DX2                !
 ! D146  D(42,17,18,19)         62.4318         estimate D2E/DX2                !
 ! D147  D(42,17,18,43)        -60.3265         estimate D2E/DX2                !
 ! D148  D(3,18,19,1)           32.3792         estimate D2E/DX2                !
 ! D149  D(3,18,19,14)         -87.5008         estimate D2E/DX2                !
 ! D150  D(3,18,19,20)         152.9176         estimate D2E/DX2                !
 ! D151  D(17,18,19,1)         155.9817         estimate D2E/DX2                !
 ! D152  D(17,18,19,14)         36.1017         estimate D2E/DX2                !
 ! D153  D(17,18,19,20)        -83.4799         estimate D2E/DX2                !
 ! D154  D(43,18,19,1)         -82.3635         estimate D2E/DX2                !
 ! D155  D(43,18,19,14)        157.7565         estimate D2E/DX2                !
 ! D156  D(43,18,19,20)         38.1749         estimate D2E/DX2                !
 ! D157  D(1,19,20,21)          70.7908         estimate D2E/DX2                !
 ! D158  D(1,19,20,25)        -106.711          estimate D2E/DX2                !
 ! D159  D(14,19,20,21)       -171.3593         estimate D2E/DX2                !
 ! D160  D(14,19,20,25)         11.139          estimate D2E/DX2                !
 ! D161  D(18,19,20,21)        -45.008          estimate D2E/DX2                !
 ! D162  D(18,19,20,25)        137.4902         estimate D2E/DX2                !
 ! D163  D(19,20,21,22)       -177.6196         estimate D2E/DX2                !
 ! D164  D(19,20,21,44)          1.4434         estimate D2E/DX2                !
 ! D165  D(25,20,21,22)         -0.327          estimate D2E/DX2                !
 ! D166  D(25,20,21,44)        178.7361         estimate D2E/DX2                !
 ! D167  D(19,20,25,13)         -4.5956         estimate D2E/DX2                !
 ! D168  D(19,20,25,24)        178.0212         estimate D2E/DX2                !
 ! D169  D(21,20,25,13)        177.6786         estimate D2E/DX2                !
 ! D170  D(21,20,25,24)          0.2955         estimate D2E/DX2                !
 ! D171  D(20,21,22,23)          0.2703         estimate D2E/DX2                !
 ! D172  D(20,21,22,45)        179.7953         estimate D2E/DX2                !
 ! D173  D(44,21,22,23)       -178.8064         estimate D2E/DX2                !
 ! D174  D(44,21,22,45)          0.7187         estimate D2E/DX2                !
 ! D175  D(21,22,23,24)         -0.1779         estimate D2E/DX2                !
 ! D176  D(21,22,23,46)        179.8218         estimate D2E/DX2                !
 ! D177  D(45,22,23,24)       -179.7042         estimate D2E/DX2                !
 ! D178  D(45,22,23,46)          0.2955         estimate D2E/DX2                !
 ! D179  D(22,23,24,25)          0.1354         estimate D2E/DX2                !
 ! D180  D(22,23,24,47)       -179.7786         estimate D2E/DX2                !
 ! D181  D(46,23,24,25)       -179.8643         estimate D2E/DX2                !
 ! D182  D(46,23,24,47)          0.2218         estimate D2E/DX2                !
 ! D183  D(23,24,25,13)       -177.0557         estimate D2E/DX2                !
 ! D184  D(23,24,25,20)         -0.1935         estimate D2E/DX2                !
 ! D185  D(47,24,25,13)          2.8565         estimate D2E/DX2                !
 ! D186  D(47,24,25,20)        179.7187         estimate D2E/DX2                !
 --------------------------------------------------------------------------------
 Trust Radius=3.00D-01 FncErr=1.00D-07 GrdErr=1.00D-06 EigMax=2.50D+02 EigMin=1.00D-04
 Number of steps in this run=    282 maximum allowed number of steps=    282.
 GradGradGradGradGradGradGradGradGradGradGradGradGradGradGradGradGradGrad

                          Input orientation:                          
 ---------------------------------------------------------------------
 Center     Atomic      Atomic             Coordinates (Angstroms)
 Number     Number       Type             X           Y           Z
 ---------------------------------------------------------------------
      1          6           0       -1.194100   -1.749300   -1.287600
      2          6           0        0.035700   -2.634100   -1.189100
      3          7           0        0.341400   -2.723600    0.246200
      4          6           0        1.782500   -2.689200    0.517600
      5          6           0        2.326300   -1.279300    0.499900
      6          6           0        3.386000   -0.927200   -0.248700
      7          6           0        3.876300    0.475500   -0.366500
      8          8           0        2.886600    1.229900   -1.052200
      9          6           0        1.921500    1.872300   -0.207400
     10          6           0        1.156800    2.851900   -1.134200
     11          6           0       -0.365300    2.828700   -1.037600
     12          8           0       -1.009500    3.865100   -1.188400
     13          7           0       -0.904900    1.580400   -0.786300
     14          6           0       -0.048300    0.409900   -0.540900
     15          6           0        0.965700    0.890700    0.506600
     16          6           0        1.560900   -0.263300    1.325000
     17          6           0        0.378700   -0.953200    2.023600
     18          6           0       -0.445400   -1.687500    0.966800
     19          6           0       -1.000000   -0.759600   -0.131800
     20          6           0       -2.282800   -0.014000    0.136500
     21          6           0       -3.459500   -0.496100    0.695900
     22          6           0       -4.550800    0.367700    0.806600
     23          6           0       -4.460000    1.692200    0.356400
     24          6           0       -3.275500    2.172800   -0.207500
     25          6           0       -2.198400    1.309900   -0.312600
     26          1           0       -1.276400   -1.265700   -2.267300
     27          1           0       -2.097100   -2.357200   -1.142800
     28          1           0        0.853300   -2.181700   -1.763400
     29          1           0       -0.152600   -3.627300   -1.609100
     30          1           0        2.315000   -3.340000   -0.187800
     31          1           0        1.970300   -3.128300    1.505800
     32          1           0        3.901900   -1.670900   -0.850600
     33          1           0        4.779500    0.482800   -0.985700
     34          1           0        4.144000    0.916100    0.600400
     35          1           0        2.465400    2.460000    0.543600
     36          1           0        1.481200    3.871400   -0.889700
     37          1           0        1.413700    2.686800   -2.188200
     38          1           0        0.465800    0.177200   -1.482900
     39          1           0        0.430200    1.513000    1.243600
     40          1           0        2.223300    0.142100    2.100700
     41          1           0        0.736800   -1.653600    2.789400
     42          1           0       -0.245300   -0.223600    2.554800
     43          1           0       -1.266200   -2.210700    1.472600
     44          1           0       -3.546500   -1.525500    1.029900
     45          1           0       -5.482700    0.010000    1.238400
     46          1           0       -5.318600    2.353600    0.446000
     47          1           0       -3.218900    3.201200   -0.548200
 ---------------------------------------------------------------------
                    Distance matrix (angstroms):
                    1          2          3          4          5
     1  C    0.000000
     2  C    1.518216   0.000000
     3  N    2.378984   1.470221   0.000000
     4  C    3.605871   2.442779   1.466837   0.000000
     5  C    3.976088   3.151992   2.467832   1.511241   0.000000
     6  C    4.767859   3.875870   3.569533   2.502613   1.344374
     7  C    5.613120   5.009640   4.806783   3.896275   2.496492
     8  O    5.057980   4.803839   4.877914   4.363789   3.003171
     9  C    4.897937   4.982732   4.881062   4.620847   3.255260
    10  C    5.169265   5.599650   5.801429   5.815817   4.593999
    11  C    4.659130   5.479593   5.742439   6.122002   5.146288
    12  O    5.618310   6.582708   6.877062   7.325609   6.359463
    13  N    3.379621   4.336933   4.598232   5.210735   4.502538
    14  C    2.555888   3.113383   3.254261   3.751889   3.094412
    15  C    3.854023   4.020512   3.677054   3.671916   2.561284
    16  C    4.077242   3.777251   2.950265   2.566319   1.516207
    17  C    3.751203   3.642048   2.508956   2.693026   2.494223
    18  C    2.376277   2.403209   1.487219   2.483691   2.840237
    19  C    1.533967   2.388369   2.408222   3.447808   3.425406
    20  C    2.494914   3.741334   3.773644   4.881454   4.793417
    21  C    3.261414   4.510066   4.428411   5.685072   5.841858
    22  C    4.487181   5.833490   5.814104   7.038384   7.078219
    23  C    5.021231   6.427811   6.524176   7.628333   7.409742
    24  C    4.569651   5.918942   6.104305   7.053239   6.617973
    25  C    3.364216   4.616773   4.799163   5.703472   5.276080
    26  H    1.095652   2.180972   3.325723   4.374802   4.542800
    27  H    1.098143   2.151198   2.830168   4.233019   4.840124
    28  H    2.145973   1.096794   2.143406   2.514743   2.847206
    29  H    2.171398   1.094670   2.121991   3.024483   4.013219
    30  H    4.006703   2.587683   2.112676   1.097582   2.172451
    31  H    4.440513   3.354012   2.098497   1.097550   2.134800
    32  H    5.115304   3.998730   3.871474   2.720434   2.111804
    33  H    6.384145   5.679795   5.612068   4.615572   3.366035
    34  H    6.258132   5.717024   5.275665   4.310653   2.852002
    35  H    5.870557   5.903859   5.609771   5.194352   3.742141
    36  H    6.237614   6.670880   6.788478   6.716602   5.401379
    37  H    5.224049   5.586507   6.028977   6.029821   4.877363
    38  H    2.550453   2.859145   3.379335   3.735231   3.084534
    39  H    4.437108   4.824116   4.353329   4.473732   3.456186
    40  H    5.170744   4.828630   3.897814   3.273648   2.143256
    41  H    4.512146   4.157088   2.787312   2.706849   2.812191
    42  H    4.241700   4.461643   3.453093   3.786996   3.456912
    43  H    2.799427   2.993135   2.086025   3.230412   3.836627
    44  H    3.309785   4.357191   4.143114   5.478585   5.901804
    45  H    5.279006   6.583066   6.509775   7.783853   7.949098
    46  H    6.070474   7.497949   7.606148   8.709798   8.464358
    47  H    5.399442   6.712220   6.957734   7.800432   7.205736
                    6          7          8          9         10
     6  C    0.000000
     7  C    1.490583   0.000000
     8  O    2.355439   1.420848   0.000000
     9  C    3.159694   2.407822   1.434497   0.000000
    10  C    4.476052   3.692197   2.372723   1.550271   0.000000
    11  C    5.366694   4.896846   3.623704   2.614075   1.525339
    12  O    6.570357   6.002995   4.705574   3.677550   2.392147
    13  N    4.998889   4.925130   3.816939   2.899805   2.447111
    14  C    3.696976   3.929021   3.089897   2.475873   2.787048
    15  C    3.119790   3.066967   2.496952   1.544956   2.564186
    16  C    2.499657   2.961094   3.104546   2.653124   3.989415
    17  C    3.769334   4.470679   4.529463   3.916764   5.005590
    18  C    4.090858   5.013317   4.867218   4.433186   5.252371
    19  C    4.390757   5.035758   4.462164   3.932909   4.324295
    20  C    5.754790   6.198962   5.448210   4.620880   4.653913
    21  C    6.923799   7.475738   6.804992   5.948145   5.989040
    22  C    8.110685   8.509042   7.714496   6.721807   6.520326
    23  C    8.293800   8.455580   7.494692   6.408888   5.925811
    24  C    7.347604   7.352166   6.290791   5.205680   4.578781
    25  C    6.016163   6.131974   5.139128   4.159439   3.782877
    26  H    5.091886   5.761522   5.003504   4.931206   4.915181
    27  H    5.736611   6.656451   6.141072   5.908705   6.141878
    28  H    3.206658   4.260349   4.034740   4.471812   5.081844
    29  H    4.654344   5.882946   5.756671   6.042537   6.627223
    30  H    2.640521   4.126455   4.685926   5.227169   6.369986
    31  H    3.150765   4.486170   5.135842   5.286155   6.587425
    32  H    1.086980   2.200464   3.079954   4.109739   5.298275
    33  H    2.114973   1.095095   2.036087   3.271792   4.331125
    34  H    2.166400   1.095759   2.100146   2.550758   3.959738
    35  H    3.598384   2.599454   2.058430   1.097825   2.163569
    36  H    5.202471   4.188362   2.996511   2.157730   1.097450
    37  H    4.551112   3.777941   2.362729   2.201100   1.097348
    38  H    3.357159   3.600950   2.674687   2.572805   2.784438
    39  H    4.113185   3.942643   3.374129   2.111510   2.823922
    40  H    2.831069   2.988418   3.400596   2.900345   4.352587
    41  H    4.095848   4.934494   5.262519   4.776641   5.989204
    42  H    4.641229   5.100031   4.993186   4.088712   5.003329
    43  H    5.123789   6.086318   5.954670   5.445615   6.188397
    44  H    7.074768   7.813571   7.301517   6.555530   6.779822
    45  H    9.041219   9.507012   8.762430   7.770500   7.601880
    46  H    9.328254   9.419851   8.416211   7.285440   6.684021
    47  H    7.794748   7.602915   6.435617   5.320323   4.428562
                   11         12         13         14         15
    11  C    0.000000
    12  O    1.229577   0.000000
    13  N    1.382958   2.322171   0.000000
    14  C    2.489537   3.644389   1.471073   0.000000
    15  C    2.812820   3.952404   2.376220   1.535129   0.000000
    16  C    4.341957   5.474287   3.733227   2.554272   1.534848
    17  C    4.922118   5.954835   3.995284   2.935478   2.458826
    18  C    4.941670   5.982847   3.736799   2.613414   2.974912
    19  C    3.754892   4.743874   2.431669   1.562314   2.644810
    20  C    3.624398   4.292327   2.300496   2.373089   3.392375
    21  C    4.861419   5.345386   3.610367   3.739892   4.641276
    22  C    5.193843   5.362149   4.159394   4.700005   5.549351
    23  C    4.472297   4.360488   3.735907   4.681083   5.486637
    24  C    3.096536   2.993460   2.511114   3.692396   4.487928
    25  C    2.488500   2.951196   1.403818   2.342019   3.295200
    26  H    4.371084   5.249797   3.229808   2.701170   4.167924
    27  H    5.468433   6.316801   4.129543   3.495241   4.759214
    28  H    5.207291   6.353301   4.266074   3.003961   3.821672
    29  H    6.484735   7.552968   5.325701   4.177429   5.112642
    30  H    6.779309   7.997935   5.910693   4.446529   4.494622
    31  H    6.885475   8.065083   5.974308   4.558792   4.261453
    32  H    6.204060   7.408323   5.803483   4.475458   4.126143
    33  H    5.654636   6.707724   5.792831   4.848795   4.115630
    34  H    5.164772   6.201207   5.277843   4.374264   3.179785
    35  H    3.263280   4.129051   3.728438   3.420196   2.170984
    36  H    2.125714   2.508555   3.309508   3.800397   3.331661
    37  H    2.123407   2.874002   2.926662   3.167857   3.269346
    38  H    2.814156   3.982944   2.081596   1.098095   2.171887
    39  H    2.750956   3.676919   2.430541   2.151797   1.103262
    40  H    4.875202   5.927048   4.493229   3.494272   2.164050
    41  H    5.995963   7.023426   5.093090   3.995662   3.425935
    42  H    4.715535   5.595803   3.853886   3.165990   2.627415
    43  H    5.701603   6.637934   4.427822   3.522074   3.941220
    44  H    5.775262   6.357342   4.463547   4.295415   5.145077
    45  H    6.270010   6.384409   5.246124   5.732236   6.549277
    46  H    5.192492   4.850179   4.647273   5.703333   6.452610
    47  H    2.919127   2.394174   2.835186   4.224229   4.895088
                   16         17         18         19         20
    16  C    0.000000
    17  C    1.536750   0.000000
    18  C    2.486341   1.528124   0.000000
    19  C    2.987773   2.565939   1.541266   0.000000
    20  C    4.030969   3.395118   2.620313   1.507806   0.000000
    21  C    5.065015   4.086992   3.252325   2.608383   1.389234
    22  C    6.166018   5.246507   4.593889   3.841820   2.395528
    23  C    6.404171   5.761138   5.283178   4.268637   2.774829
    24  C    5.627957   5.301213   4.928525   3.712492   2.426084
    25  C    4.391928   4.149807   3.700578   2.398266   1.400545
    26  H    4.686117   4.609646   3.365691   2.211989   2.890994
    27  H    4.884201   4.257569   2.761707   2.185881   2.676131
    28  H    3.703940   4.009467   3.063470   2.849422   4.259538
    29  H    4.781372   4.541982   3.237872   3.335297   4.543216
    30  H    3.510458   3.786339   3.418138   4.201289   5.683943
    31  H    2.899745   2.744516   2.863919   4.137047   5.446348
    32  H    3.492113   4.603157   4.711925   5.037436   6.478441
    33  H    4.031797   5.521324   5.985151   5.972882   7.168140
    34  H    2.930603   4.438160   5.289194   5.459379   6.510303
    35  H    2.974066   4.265519   5.084645   4.778178   5.369526
    36  H    4.691161   5.742786   6.169258   5.308194   5.506098
    37  H    4.589916   5.662163   5.704803   4.683204   5.134458
    38  H    3.045913   3.685232   3.210673   2.202643   3.195906
    39  H    2.107214   2.587121   3.329639   3.016937   3.304205
    40  H    1.097649   2.146666   3.428575   4.023280   4.918067
    41  H    2.180950   1.097837   2.172698   3.514131   4.340985
    42  H    2.185485   1.097208   2.169052   2.841599   3.169150
    43  H    3.436080   2.142569   1.096943   2.179599   2.764802
    44  H    5.269323   4.089274   3.105970   2.901864   2.163269
    45  H    7.049432   5.991686   5.322562   4.750193   3.384394
    46  H    7.412714   6.773697   6.352149   5.355014   3.862305
    47  H    6.193394   6.067612   5.821247   4.559040   3.417983
                   21         22         23         24         25
    21  C    0.000000
    22  C    1.396188   0.000000
    23  C    2.430004   1.401865   0.000000
    24  C    2.823653   2.431702   1.397140   0.000000
    25  C    2.422619   2.770223   2.389257   1.384120   0.000000
    26  H    3.760155   4.778970   5.076247   4.479114   3.362239
    27  H    2.949686   4.152816   4.922249   4.773292   3.761265
    28  H    5.243057   6.504509   6.908821   6.199152   4.858906
    29  H    5.104216   6.414031   7.121374   6.734846   5.499287
    30  H    6.497195   7.866071   8.456939   7.851436   6.481352
    31  H    6.088279   7.432068   8.118319   7.652155   6.354704
    32  H    7.613280   8.851573   9.093331   8.167171   6.810894
    33  H    8.465645   9.501583   9.414470   8.267087   7.058913
    34  H    7.734122   8.714517   8.642377   7.568420   6.419866
    35  H    6.623154   7.326251   6.970346   5.796945   4.879225
    36  H    6.782308   7.179023   6.449770   5.096747   4.520374
    37  H    6.495919   7.065572   6.478007   5.116245   4.296626
    38  H    4.539657   5.517642   5.471906   4.427910   3.122591
    39  H    4.412054   5.129624   4.973258   4.034010   3.061461
    40  H    5.888546   6.900291   7.078975   6.299868   5.170996
    41  H    4.830267   5.997988   6.642334   6.302483   5.198090
    42  H    3.723016   4.684354   5.125129   4.749226   3.793179
    43  H    2.890274   4.228510   5.165161   5.106378   4.055929
    44  H    1.085721   2.154690   3.411990   3.909223   3.414553
    45  H    2.154944   1.087584   2.157229   3.411754   3.857715
    46  H    3.411670   2.159479   1.087507   2.152675   3.376453
    47  H    3.908414   3.411475   2.153070   1.084844   2.161930
                   26         27         28         29         30
    26  H    0.000000
    27  H    1.769017   0.000000
    28  H    2.372466   3.020067   0.000000
    29  H    2.696907   2.368896   1.767881   0.000000
    30  H    4.639525   4.620016   2.441463   2.862112   0.000000
    31  H    5.314755   4.914613   3.582096   3.802408   1.741240
    32  H    5.383866   6.045196   3.223055   4.565281   2.396550
    33  H    6.432237   7.441633   4.808266   6.450361   4.617814
    34  H    6.508816   7.259791   5.100257   6.632130   4.699030
    35  H    5.981895   6.845858   5.428305   6.967300   5.847869
    36  H    5.990988   7.187750   6.147978   7.708264   7.293297
    37  H    4.781752   6.233820   4.919024   6.531195   6.413756
    38  H    2.394265   3.620402   2.406916   3.856496   4.179416
    39  H    4.791667   5.201980   4.782454   5.907642   5.399351
    40  H    5.771414   5.952533   4.712559   5.797921   4.167813
    41  H    5.456524   4.897779   4.584806   4.902380   3.768074
    42  H    5.040019   4.653349   4.867025   5.378832   4.877391
    43  H    3.857458   2.748122   3.868439   3.569837   4.105757
    44  H    4.011531   2.741005   5.252748   4.785441   6.255588
    45  H    5.622304   4.768232   7.345696   7.053239   8.605851
    46  H    6.066359   5.924018   7.971370   8.165914   9.544141
    47  H    5.165444   5.701561   6.858217   7.560166   8.575619
                   31         32         33         34         35
    31  H    0.000000
    32  H    3.377531   0.000000
    33  H    5.209532   2.329562   0.000000
    34  H    4.679946   2.976001   1.762760   0.000000
    35  H    5.692104   4.590388   3.406338   2.281349   0.000000
    36  H    7.414408   6.048008   4.729758   4.247905   2.239430
    37  H    6.911644   5.193252   4.199075   4.285581   2.936025
    38  H    4.703422   3.952475   4.353000   4.291301   3.649148
    39  H    4.897175   5.155152   4.994747   3.816059   2.351350
    40  H    3.333681   3.849005   4.021952   2.557159   2.802826
    41  H    2.311686   4.823666   5.929503   4.796258   4.995336
    42  H    3.800864   5.557940   6.187306   4.938071   4.312137
    43  H    3.364227   5.691915   7.060359   6.309348   6.050068
    44  H    5.764593   7.683494   8.798761   8.080202   7.229360
    45  H    8.091207   9.760126  10.511085   9.690274   8.346109
    46  H    9.181637  10.143737  10.369247   9.572411   7.785339
    47  H    8.438559   8.633342   8.459049   7.794438   5.835467
                   36         37         38         39         40
    36  H    0.000000
    37  H    1.758959   0.000000
    38  H    3.876859   2.773816   0.000000
    39  H    3.349272   3.757969   3.036352   0.000000
    40  H    4.837446   5.052288   3.991519   2.414373   0.000000
    41  H    6.679486   6.638808   4.655944   3.537069   2.430746
    42  H    5.622669   5.806786   4.119384   2.278448   2.536519
    43  H    7.079591   6.675989   4.175748   4.098311   4.255207
    44  H    7.621625   7.259699   5.031094   5.009221   6.100663
    45  H    8.242277   8.152741   6.543553   6.100936   7.755221
    46  H    7.094018   7.236981   6.474307   5.864425   8.031751
    47  H    4.759909   4.941173   4.857495   4.401874   6.781763
                   41         42         43         44         45
    41  H    0.000000
    42  H    1.750559   0.000000
    43  H    2.460962   2.482330   0.000000
    44  H    4.632376   3.862407   2.421828   0.000000
    45  H    6.622337   5.405353   4.771292   2.479940   0.000000
    46  H    7.630009   6.068556   6.189401   4.304497   2.479372
    47  H    7.096212   5.495467   6.097978   4.993938   4.301219
                   46         47
    46  H    0.000000
    47  H    2.472974   0.000000
 Stoichiometry    C21H22N2O2
 Framework group  C1[X(C21H22N2O2)]
 Deg. of freedom   135
 Full point group                 C1      NOp   1
 Largest Abelian subgroup         C1      NOp   1
 Largest concise Abelian subgroup C1      NOp   1
                         Standard orientation:                         
 ---------------------------------------------------------------------
 Center     Atomic      Atomic             Coordinates (Angstroms)
 Number     Number       Type             X           Y           Z
 ---------------------------------------------------------------------
      1          6           0        0.411503   -1.833576    1.709726
      2          6           0       -1.032133   -2.303557    1.713518
      3          7           0       -1.339456   -2.640069    0.315712
      4          6           0       -2.695795   -2.240008   -0.074040
      5          6           0       -2.772803   -0.771198   -0.421194
      6          6           0       -3.675526    0.053048    0.138316
      7          6           0       -3.704720    1.523239   -0.105659
      8          8           0       -2.534386    2.086697    0.470226
      9          6           0       -1.410595    2.185334   -0.415858
     10          6           0       -0.385636    3.082407    0.324452
     11          6           0        1.053981    2.579605    0.361189
     12          8           0        1.988138    3.378320    0.325611
     13          7           0        1.179202    1.204859    0.444661
     14          6           0        0.002147    0.323541    0.401353
     15          6           0       -0.803206    0.819878   -0.807645
     16          6           0       -1.722359   -0.262998   -1.389277
     17          6           0       -0.809004   -1.423740   -1.813613
     18          6           0       -0.263214   -2.094577   -0.553750
     19          6           0        0.544687   -1.140563    0.347724
     20          6           0        1.998077   -0.903377    0.023871
     21          6           0        2.969954   -1.837182   -0.312929
     22          6           0        4.277062   -1.395313   -0.526381
     23          6           0        4.600475   -0.037398   -0.397171
     24          6           0        3.620685    0.898455   -0.056305
     25          6           0        2.327392    0.451793    0.152676
     26          1           0        0.633009   -1.176012    2.557664
     27          1           0        1.080917   -2.701148    1.781289
     28          1           0       -1.672217   -1.501644    2.101054
     29          1           0       -1.166263   -3.175398    2.361750
     30          1           0       -3.410132   -2.510196    0.714253
     31          1           0       -3.003588   -2.826809   -0.948995
     32          1           0       -4.402273   -0.332798    0.848588
     33          1           0       -4.565312    1.951056    0.419305
     34          1           0       -3.814190    1.777293   -1.165923
     35          1           0       -1.738252    2.710279   -1.322662
     36          1           0       -0.373957    4.061777   -0.170619
     37          1           0       -0.689311    3.261433    1.363636
     38          1           0       -0.566112    0.490610    1.326005
     39          1           0       -0.094665    1.055250   -1.619899
     40          1           0       -2.219274    0.123457   -2.288478
     41          1           0       -1.361810   -2.146775   -2.427511
     42          1           0        0.015506   -1.066399   -2.443182
     43          1           0        0.357299   -2.946269   -0.858497
     44          1           0        2.734085   -2.893666   -0.396573
     45          1           0        5.054183   -2.109905   -0.787686
     46          1           0        5.623205    0.292844   -0.563411
     47          1           0        3.885073    1.946482    0.036569
 ---------------------------------------------------------------------
 Rotational constants (GHZ):           0.3768415           0.2440448           0.1702869
 Standard basis: 6-31+G(d,p) (6D, 7F)
 There are   585 symmetry adapted cartesian basis functions of A   symmetry.
 There are   585 symmetry adapted basis functions of A   symmetry.
   585 basis functions,   954 primitive gaussians,   585 cartesian basis functions
    89 alpha electrons       89 beta electrons
       nuclear repulsion energy      2387.8327673460 Hartrees.
 NAtoms=   47 NActive=   47 NUniq=   47 SFac= 1.00D+00 NAtFMM=   60 NAOKFM=F Big=F
 Integral buffers will be    131072 words long.
 Raffenetti 2 integral format.
 Two-electron integral symmetry is turned on.
 One-electron integrals computed using PRISM.
 NBasis=   585 RedAO= T EigKep=  1.14D-06  NBF=   585
 NBsUse=   582 1.00D-06 EigRej=  7.94D-07 NBFU=   582
 ExpMin= 4.38D-02 ExpMax= 5.48D+03 ExpMxC= 8.25D+02 IAcc=3 IRadAn=         5 AccDes= 0.00D+00
 Harris functional with IExCor=  402 and IRadAn=       5 diagonalized for initial guess.
 HarFok:  IExCor=  402 AccDes= 0.00D+00 IRadAn=         5 IDoV= 1 UseB2=F ITyADJ=14
 ICtDFT=  3500011 ScaDFX=  1.000000  1.000000  1.000000  1.000000
 FoFCou: FMM=F IPFlag=           0 FMFlag=      100000 FMFlg1=           0
         NFxFlg=           0 DoJE=T BraDBF=F KetDBF=T FulRan=T
         wScrn=  0.000000 ICntrl=       500 IOpCl=  0 I1Cent=   200000004 NGrid=           0
         NMat0=    1 NMatS0=      1 NMatT0=    0 NMatD0=    1 NMtDS0=    0 NMtDT0=    0
 Petite list used in FoFCou.
 Requested convergence on RMS density matrix=1.00D-08 within 128 cycles.
 Requested convergence on MAX density matrix=1.00D-06.
 Requested convergence on             energy=1.00D-06.
 No special actions if energy rises.
 SCF Done:  E(RB3LYP) =  -1073.46574316     A.U. after   16 cycles
            NFock= 16  Conv=0.58D-08     -V/T= 2.0091

 **********************************************************************

            Population analysis using the SCF Density.

 **********************************************************************

 Orbital symmetries:
       Occupied  (A) (A) (A) (A) (A) (A) (A) (A) (A) (A) (A) (A)
                 (A) (A) (A) (A) (A) (A) (A) (A) (A) (A) (A) (A)
                 (A) (A) (A) (A) (A) (A) (A) (A) (A) (A) (A) (A)
                 (A) (A) (A) (A) (A) (A) (A) (A) (A) (A) (A) (A)
                 (A) (A) (A) (A) (A) (A) (A) (A) (A) (A) (A) (A)
                 (A) (A) (A) (A) (A) (A) (A) (A) (A) (A) (A) (A)
                 (A) (A) (A) (A) (A) (A) (A) (A) (A) (A) (A) (A)
                 (A) (A) (A) (A) (A)
       Virtual   (A) (A) (A) (A) (A) (A) (A) (A) (A) (A) (A) (A)
                 (A) (A) (A) (A) (A) (A) (A) (A) (A) (A) (A) (A)
                 (A) (A) (A) (A) (A) (A) (A) (A) (A) (A) (A) (A)
                 (A) (A) (A) (A) (A) (A) (A) (A) (A) (A) (A) (A)
                 (A) (A) (A) (A) (A) (A) (A) (A) (A) (A) (A) (A)
                 (A) (A) (A) (A) (A) (A) (A) (A) (A) (A) (A) (A)
                 (A) (A) (A) (A) (A) (A) (A) (A) (A) (A) (A) (A)
                 (A) (A) (A) (A) (A) (A) (A) (A) (A) (A) (A) (A)
                 (A) (A) (A) (A) (A) (A) (A) (A) (A) (A) (A) (A)
                 (A) (A) (A) (A) (A) (A) (A) (A) (A) (A) (A) (A)
                 (A) (A) (A) (A) (A) (A) (A) (A) (A) (A) (A) (A)
                 (A) (A) (A) (A) (A) (A) (A) (A) (A) (A) (A) (A)
                 (A) (A) (A) (A) (A) (A) (A) (A) (A) (A) (A) (A)
                 (A) (A) (A) (A) (A) (A) (A) (A) (A) (A) (A) (A)
                 (A) (A) (A) (A) (A) (A) (A) (A) (A) (A) (A) (A)
                 (A) (A) (A) (A) (A) (A) (A) (A) (A) (A) (A) (A)
                 (A) (A) (A) (A) (A) (A) (A) (A) (A) (A) (A) (A)
                 (A) (A) (A) (A) (A) (A) (A) (A) (A) (A) (A) (A)
                 (A) (A) (A) (A) (A) (A) (A) (A) (A) (A) (A) (A)
                 (A) (A) (A) (A) (A) (A) (A) (A) (A) (A) (A) (A)
                 (A) (A) (A) (A) (A) (A) (A) (A) (A) (A) (A) (A)
                 (A) (A) (A) (A) (A) (A) (A) (A) (A) (A) (A) (A)
                 (A) (A) (A) (A) (A) (A) (A) (A) (A) (A) (A) (A)
                 (A) (A) (A) (A) (A) (A) (A) (A) (A) (A) (A) (A)
                 (A) (A) (A) (A) (A) (A) (A) (A) (A) (A) (A) (A)
                 (A) (A) (A) (A) (A) (A) (A) (A) (A) (A) (A) (A)
                 (A) (A) (A) (A) (A) (A) (A) (A) (A) (A) (A) (A)
                 (A) (A) (A) (A) (A) (A) (A) (A) (A) (A) (A) (A)
                 (A) (A) (A) (A) (A) (A) (A) (A) (A) (A) (A) (A)
                 (A) (A) (A) (A) (A) (A) (A) (A) (A) (A) (A) (A)
                 (A) (A) (A) (A) (A) (A) (A) (A) (A) (A) (A) (A)
                 (A) (A) (A) (A) (A) (A) (A) (A) (A) (A) (A) (A)
                 (A) (A) (A) (A) (A) (A) (A) (A) (A) (A) (A) (A)
                 (A) (A) (A) (A) (A) (A) (A) (A) (A) (A) (A) (A)
                 (A) (A) (A) (A) (A) (A) (A) (A) (A) (A) (A) (A)
                 (A) (A) (A) (A) (A) (A) (A) (A) (A) (A) (A) (A)
                 (A) (A) (A) (A) (A) (A) (A) (A) (A) (A) (A) (A)
                 (A) (A) (A) (A) (A) (A) (A) (A) (A) (A) (A) (A)
                 (A) (A) (A) (A) (A) (A) (A) (A) (A) (A) (A) (A)
                 (A) (A) (A) (A) (A) (A) (A) (A) (A) (A) (A) (A)
                 (A) (A) (A) (A) (A) (A) (A) (A) (A) (A) (A) (A)
                 (A)
 The electronic state is 1-A.
 Alpha  occ. eigenvalues --  -19.16712 -19.12793 -14.38366 -14.33464 -10.29842
 Alpha  occ. eigenvalues --  -10.25909 -10.24457 -10.24237 -10.23380 -10.22869
 Alpha  occ. eigenvalues --  -10.22255 -10.21922 -10.21398 -10.21261 -10.21192
 Alpha  occ. eigenvalues --  -10.20507 -10.20156 -10.20146 -10.20085 -10.19858
 Alpha  occ. eigenvalues --  -10.19545 -10.19490 -10.19342 -10.19213 -10.18969
 Alpha  occ. eigenvalues --   -1.05038  -1.04341  -0.97859  -0.94885  -0.86486
 Alpha  occ. eigenvalues --   -0.84833  -0.83377  -0.81476  -0.78172  -0.75846
 Alpha  occ. eigenvalues --   -0.75465  -0.74421  -0.72559  -0.71241  -0.67318
 Alpha  occ. eigenvalues --   -0.65522  -0.64383  -0.63818  -0.61107  -0.59381
 Alpha  occ. eigenvalues --   -0.58371  -0.56744  -0.56076  -0.52517  -0.52219
 Alpha  occ. eigenvalues --   -0.51613  -0.50369  -0.49839  -0.49407  -0.48113
 Alpha  occ. eigenvalues --   -0.47535  -0.47077  -0.46403  -0.45606  -0.45357
 Alpha  occ. eigenvalues --   -0.44589  -0.43667  -0.42267  -0.41928  -0.41360
 Alpha  occ. eigenvalues --   -0.40862  -0.40633  -0.39946  -0.39465  -0.38697
 Alpha  occ. eigenvalues --   -0.38044  -0.37813  -0.37155  -0.36915  -0.36143
 Alpha  occ. eigenvalues --   -0.35958  -0.34876  -0.34123  -0.33864  -0.33586
 Alpha  occ. eigenvalues --   -0.32966  -0.32231  -0.30146  -0.27657  -0.25848
 Alpha  occ. eigenvalues --   -0.25415  -0.25068  -0.22076  -0.21380
 Alpha virt. eigenvalues --   -0.02486  -0.02151  -0.01678  -0.00606  -0.00062
 Alpha virt. eigenvalues --    0.00384   0.00862   0.01696   0.01873   0.02440
 Alpha virt. eigenvalues --    0.02575   0.02723   0.02898   0.03952   0.04280
 Alpha virt. eigenvalues --    0.04906   0.05094   0.05507   0.05768   0.05942
 Alpha virt. eigenvalues --    0.06559   0.07013   0.07205   0.07793   0.08328
 Alpha virt. eigenvalues --    0.08613   0.08856   0.09169   0.09448   0.09927
 Alpha virt. eigenvalues --    0.10013   0.10411   0.10897   0.11753   0.11834
 Alpha virt. eigenvalues --    0.12412   0.12491   0.12684   0.12978   0.13131
 Alpha virt. eigenvalues --    0.13457   0.14083   0.14248   0.14630   0.14776
 Alpha virt. eigenvalues --    0.15008   0.15209   0.15750   0.16171   0.16387
 Alpha virt. eigenvalues --    0.16679   0.16936   0.17027   0.17314   0.17819
 Alpha virt. eigenvalues --    0.17879   0.18089   0.18368   0.18425   0.18784
 Alpha virt. eigenvalues --    0.19056   0.19108   0.19422   0.19569   0.19739
 Alpha virt. eigenvalues --    0.20258   0.20589   0.20725   0.20775   0.21034
 Alpha virt. eigenvalues --    0.21106   0.21512   0.21540   0.21771   0.22165
 Alpha virt. eigenvalues --    0.22368   0.22719   0.22796   0.23091   0.23395
 Alpha virt. eigenvalues --    0.23535   0.23936   0.24134   0.24603   0.24636
 Alpha virt. eigenvalues --    0.24971   0.25537   0.25607   0.25916   0.26290
 Alpha virt. eigenvalues --    0.26388   0.26844   0.26896   0.27323   0.27465
 Alpha virt. eigenvalues --    0.28012   0.28196   0.28365   0.28672   0.28857
 Alpha virt. eigenvalues --    0.29324   0.29621   0.29944   0.30163   0.30550
 Alpha virt. eigenvalues --    0.30896   0.31187   0.31340   0.31501   0.32149
 Alpha virt. eigenvalues --    0.32179   0.32941   0.33098   0.33316   0.33657
 Alpha virt. eigenvalues --    0.34297   0.34598   0.34927   0.35360   0.35971
 Alpha virt. eigenvalues --    0.36368   0.36837   0.36941   0.37215   0.37429
 Alpha virt. eigenvalues --    0.37761   0.38225   0.38904   0.39059   0.39859
 Alpha virt. eigenvalues --    0.40435   0.40914   0.41310   0.41615   0.41795
 Alpha virt. eigenvalues --    0.42150   0.42877   0.43325   0.44015   0.44826
 Alpha virt. eigenvalues --    0.45283   0.46111   0.46311   0.46594   0.47544
 Alpha virt. eigenvalues --    0.47827   0.48227   0.49524   0.50139   0.51011
 Alpha virt. eigenvalues --    0.51813   0.53547   0.54560   0.60144   0.63453
 Alpha virt. eigenvalues --    0.65391   0.66192   0.68201   0.69062   0.69494
 Alpha virt. eigenvalues --    0.70198   0.71464   0.71871   0.72583   0.72815
 Alpha virt. eigenvalues --    0.73414   0.73655   0.74537   0.74681   0.74743
 Alpha virt. eigenvalues --    0.74944   0.76137   0.76802   0.76943   0.77880
 Alpha virt. eigenvalues --    0.78224   0.78573   0.79014   0.79257   0.80063
 Alpha virt. eigenvalues --    0.80619   0.81547   0.82116   0.82567   0.83137
 Alpha virt. eigenvalues --    0.83807   0.84121   0.84894   0.85453   0.85683
 Alpha virt. eigenvalues --    0.86838   0.87751   0.88418   0.89517   0.89809
 Alpha virt. eigenvalues --    0.90612   0.91142   0.91415   0.92149   0.92698
 Alpha virt. eigenvalues --    0.93141   0.94077   0.94777   0.95116   0.96344
 Alpha virt. eigenvalues --    0.96804   0.97349   0.98177   0.98826   0.99756
 Alpha virt. eigenvalues --    0.99986   1.00247   1.01539   1.02578   1.03571
 Alpha virt. eigenvalues --    1.04291   1.04673   1.05045   1.07172   1.07773
 Alpha virt. eigenvalues --    1.08219   1.08996   1.09461   1.10289   1.11248
 Alpha virt. eigenvalues --    1.11573   1.12860   1.13525   1.14576   1.14996
 Alpha virt. eigenvalues --    1.16348   1.17014   1.17698   1.18069   1.18805
 Alpha virt. eigenvalues --    1.19201   1.19533   1.20613   1.21066   1.21882
 Alpha virt. eigenvalues --    1.23318   1.23577   1.24633   1.25852   1.27816
 Alpha virt. eigenvalues --    1.29535   1.30382   1.30708   1.31162   1.32434
 Alpha virt. eigenvalues --    1.33496   1.34780   1.35464   1.37239   1.37636
 Alpha virt. eigenvalues --    1.38555   1.39419   1.40034   1.40628   1.41662
 Alpha virt. eigenvalues --    1.41996   1.42074   1.42949   1.43356   1.45799
 Alpha virt. eigenvalues --    1.46740   1.48706   1.49035   1.50247   1.50882
 Alpha virt. eigenvalues --    1.53482   1.54540   1.55974   1.56798   1.58134
 Alpha virt. eigenvalues --    1.60405   1.62023   1.63740   1.64561   1.65518
 Alpha virt. eigenvalues --    1.66809   1.67265   1.68842   1.69739   1.70099
 Alpha virt. eigenvalues --    1.71950   1.72474   1.74432   1.75126   1.75444
 Alpha virt. eigenvalues --    1.76007   1.77454   1.78744   1.79341   1.79996
 Alpha virt. eigenvalues --    1.81030   1.81445   1.82652   1.84104   1.84732
 Alpha virt. eigenvalues --    1.85219   1.85770   1.86034   1.87325   1.88746
 Alpha virt. eigenvalues --    1.88878   1.90406   1.90650   1.91428   1.92163
 Alpha virt. eigenvalues --    1.93042   1.93355   1.93616   1.95255   1.95797
 Alpha virt. eigenvalues --    1.96038   1.97665   1.98719   1.99783   2.00122
 Alpha virt. eigenvalues --    2.00733   2.01111   2.02328   2.02813   2.04097
 Alpha virt. eigenvalues --    2.05185   2.05483   2.06188   2.06561   2.07553
 Alpha virt. eigenvalues --    2.08014   2.08275   2.09237   2.09974   2.11306
 Alpha virt. eigenvalues --    2.12152   2.12866   2.13531   2.14538   2.14968
 Alpha virt. eigenvalues --    2.16660   2.17167   2.18137   2.19212   2.20078
 Alpha virt. eigenvalues --    2.21705   2.23353   2.24250   2.24694   2.26084
 Alpha virt. eigenvalues --    2.26628   2.27986   2.28840   2.29341   2.30250
 Alpha virt. eigenvalues --    2.30970   2.31249   2.32435   2.33697   2.34316
 Alpha virt. eigenvalues --    2.36139   2.39080   2.39373   2.40086   2.40851
 Alpha virt. eigenvalues --    2.41083   2.41739   2.43142   2.43953   2.44776
 Alpha virt. eigenvalues --    2.45488   2.47126   2.47361   2.49049   2.49925
 Alpha virt. eigenvalues --    2.50776   2.51346   2.52795   2.53303   2.53867
 Alpha virt. eigenvalues --    2.54979   2.56329   2.57208   2.57744   2.58109
 Alpha virt. eigenvalues --    2.58997   2.59713   2.60687   2.61474   2.62022
 Alpha virt. eigenvalues --    2.62614   2.63653   2.64209   2.64910   2.65500
 Alpha virt. eigenvalues --    2.66452   2.67837   2.68273   2.68767   2.69134
 Alpha virt. eigenvalues --    2.69386   2.70502   2.71903   2.72562   2.73484
 Alpha virt. eigenvalues --    2.74098   2.75102   2.75673   2.77739   2.78327
 Alpha virt. eigenvalues --    2.78388   2.79577   2.80280   2.82550   2.83224
 Alpha virt. eigenvalues --    2.84201   2.84952   2.85821   2.87860   2.88316
 Alpha virt. eigenvalues --    2.88644   2.89266   2.90431   2.91192   2.92221
 Alpha virt. eigenvalues --    2.93450   2.94118   2.96092   2.98029   2.98729
 Alpha virt. eigenvalues --    2.99316   3.01476   3.03348   3.04836   3.06129
 Alpha virt. eigenvalues --    3.08005   3.10524   3.11761   3.11917   3.15029
 Alpha virt. eigenvalues --    3.17902   3.18209   3.23380   3.26927   3.27916
 Alpha virt. eigenvalues --    3.29338   3.31607   3.32964   3.34713   3.36071
 Alpha virt. eigenvalues --    3.36887   3.38399   3.40117   3.41707   3.45421
 Alpha virt. eigenvalues --    3.46698   3.47478   3.48856   3.50611   3.51562
 Alpha virt. eigenvalues --    3.52553   3.53717   3.54345   3.54759   3.55219
 Alpha virt. eigenvalues --    3.56097   3.58330   3.87118   4.31226   4.36850
 Alpha virt. eigenvalues --    4.38658   4.40126   4.42867   4.45894   4.47564
 Alpha virt. eigenvalues --    4.50236   4.53169   4.54213   4.57132   4.57645
 Alpha virt. eigenvalues --    4.58807   4.64202   4.66035   4.70014   4.74096
 Alpha virt. eigenvalues --    4.76851   4.82151   4.87756   4.88200   4.93313
 Alpha virt. eigenvalues --    5.01190   5.09064   5.13586
          Condensed to atoms (all electrons):
               1          2          3          4          5          6
     1  C   11.739130  -2.076269   0.182217   0.037735  -0.255951   0.166020
     2  C   -2.076269   6.822259   0.008991  -0.403470   0.564779  -0.062787
     3  N    0.182217   0.008991   7.993446   0.343003   0.505960  -0.542355
     4  C    0.037735  -0.403470   0.343003   8.342505  -2.001748  -0.653436
     5  C   -0.255951   0.564779   0.505960  -2.001748  18.231044  -7.631832
     6  C    0.166020  -0.062787  -0.542355  -0.653436  -7.631832  14.261416
     7  C   -0.017269   0.044607   0.043351  -0.230453   1.452617  -1.070895
     8  O    0.017587  -0.008394   0.001122  -0.011700  -0.104538   0.018247
     9  C   -0.173440  -0.068759  -0.139483  -0.042607   0.045805  -0.406994
    10  C   -0.019994   0.023497   0.020746   0.070328  -0.347185   0.215525
    11  C    0.121896  -0.061618   0.000294  -0.009217   0.230414  -0.168873
    12  O   -0.005760   0.001708  -0.000080  -0.000379   0.002772   0.000410
    13  N    0.277748  -0.060389   0.034207  -0.032103  -0.091345   0.010501
    14  C   -1.605638   0.600659   0.382617  -0.049460   1.687771  -1.283068
    15  C   -0.295346   0.088289   0.440410  -0.667155   3.390676  -2.417433
    16  C    0.047680  -0.206792  -0.596575   1.186450  -8.492093   3.827450
    17  C   -0.566791   0.283950   0.687312  -0.650081   1.211593  -0.041136
    18  C    1.784705  -0.789579  -1.250458  -0.865085  -0.323965   1.145476
    19  C   -3.821475   1.172218  -1.011321   0.678821  -1.671921   0.438041
    20  C   -1.633132   0.287598   0.213035   0.145894  -0.153668   0.117698
    21  C    1.066133  -0.402797  -0.160774   0.110528  -0.340287   0.090209
    22  C    0.062341   0.019884   0.018357  -0.011205   0.002665   0.001868
    23  C    0.090817  -0.051496  -0.007635   0.012155  -0.026765   0.006381
    24  C    0.182628  -0.078204  -0.062203   0.017534  -0.040922  -0.018868
    25  C   -0.016222  -0.204718   0.095106   0.125777   0.069512  -0.126342
    26  H    0.546331  -0.081153   0.024864  -0.011399   0.008942  -0.000414
    27  H    0.534860  -0.096033   0.023920   0.006340  -0.005999  -0.000522
    28  H   -0.122025   0.468968  -0.114955  -0.069502  -0.019351   0.054023
    29  H   -0.153807   0.521839  -0.026068   0.009397   0.010944  -0.020264
    30  H   -0.000616   0.009443  -0.063613   0.610998  -0.173070  -0.081362
    31  H   -0.002893   0.001630  -0.051851   0.452896  -0.026108  -0.029123
    32  H    0.000030   0.001479   0.002595  -0.050523  -0.051814   0.369209
    33  H    0.000307  -0.000569   0.000049  -0.007531   0.148888  -0.232748
    34  H    0.000440   0.000420   0.000470  -0.010227   0.067185  -0.136591
    35  H    0.002612  -0.000038   0.000302  -0.004337   0.027117  -0.006460
    36  H    0.000527   0.000122   0.000028   0.000062   0.000768  -0.001765
    37  H    0.001096  -0.000560   0.000133   0.000314   0.003603  -0.007792
    38  H    0.102965  -0.073949   0.001168   0.003030  -0.056017   0.038903
    39  H    0.018602  -0.007295   0.001638   0.008619   0.022879  -0.010501
    40  H    0.001701   0.000230   0.000616  -0.036395   0.093638  -0.071306
    41  H    0.001537   0.007905   0.018697  -0.084328   0.119997   0.024702
    42  H    0.000432  -0.005555   0.016593   0.018224  -0.014850  -0.028422
    43  H   -0.087028   0.009826   0.006616   0.074470  -0.050027  -0.010585
    44  H    0.004309   0.009073   0.001949  -0.000062   0.002161   0.000127
    45  H   -0.002789   0.000318   0.000000  -0.000005   0.000039   0.000001
    46  H   -0.000427  -0.000050  -0.000001  -0.000002  -0.000011  -0.000001
    47  H   -0.000919   0.000129   0.000005  -0.000010   0.000027   0.000005
               7          8          9         10         11         12
     1  C   -0.017269   0.017587  -0.173440  -0.019994   0.121896  -0.005760
     2  C    0.044607  -0.008394  -0.068759   0.023497  -0.061618   0.001708
     3  N    0.043351   0.001122  -0.139483   0.020746   0.000294  -0.000080
     4  C   -0.230453  -0.011700  -0.042607   0.070328  -0.009217  -0.000379
     5  C    1.452617  -0.104538   0.045805  -0.347185   0.230414   0.002772
     6  C   -1.070895   0.018247  -0.406994   0.215525  -0.168873   0.000410
     7  C    5.934574  -0.024520  -0.224722  -0.202314   0.071720   0.001399
     8  O   -0.024520   8.374347   0.412598  -0.069094   0.041974  -0.000836
     9  C   -0.224722   0.412598  13.561543  -2.533764   0.117842   0.037863
    10  C   -0.202314  -0.069094  -2.533764   8.632961  -1.490328  -0.017648
    11  C    0.071720   0.041974   0.117842  -1.490328   8.173105   0.447381
    12  O    0.001399  -0.000836   0.037863  -0.017648   0.447381   8.236461
    13  N   -0.006769   0.040122  -0.024984  -0.102739   0.328380  -0.041280
    14  C    0.230461  -0.002678  -0.203308  -0.444946  -1.018390   0.060348
    15  C    0.899111  -0.455852  -5.787910   2.066013  -0.026913   0.000343
    16  C   -1.403874   0.239542   0.050736   0.851823  -0.894142  -0.000189
    17  C    0.101162  -0.026986  -0.491436   0.048140  -0.152405   0.004133
    18  C   -0.188470  -0.010082   0.538267  -0.139383   0.310900  -0.006523
    19  C   -0.297539  -0.026643   1.182076  -0.406905  -0.389274  -0.046637
    20  C   -0.040845   0.007411   0.496460  -0.235635  -0.601797  -0.053832
    21  C   -0.034203  -0.000007   0.039374   0.113072   0.178465   0.010205
    22  C   -0.003100  -0.000317   0.040957  -0.019513  -0.046443   0.005524
    23  C   -0.000343   0.002045  -0.001445  -0.114594   0.071304   0.086252
    24  C    0.011617   0.006112  -0.277791   0.390256   0.371212   0.295507
    25  C    0.060811   0.012960  -0.165059  -0.747354  -0.262128  -0.518920
    26  H    0.000211  -0.000071  -0.004788   0.002475   0.003646  -0.000008
    27  H   -0.000186  -0.000007   0.000261  -0.000203  -0.000232  -0.000008
[...]
 0007086,-0.00001147,0.00000089,0.00000311,0.00002720,0.00004614,0.0000
 4011,-0.00003213,0.00000505,0.00000031,0.00000364,-0.00002873,-0.00004
 152,-0.00000851,-0.00055359,0.00075048,-0.00060251,0.05583556,-0.00012
 315,-0.00002595,0.00003295,0.00000602,-0.00001771,0.00010063,0.0001229
 2,-0.00006260,-0.00026820,-0.00001658,0.00003003,-0.00004303,-0.000003
 15,-0.00000467,-0.00000419,0.00001324,0.00000528,-0.00002393,0.0000348
 2,-0.00005952,0.00003428,-0.00009138,0.00008029,-0.00002339,0.00004710
 ,-0.00005063,-0.00000908,-0.00002338,-0.00004677,0.00000106,-0.0000198
 1,0.00057175,-0.00003772,0.00003209,-0.00019259,0.00003307,-0.00026231
 ,-0.00076070,0.00026782,-0.00000436,0.00001129,0.00004647,0.00002334,0
 .00000628,0.00004337,0.00000879,-0.00001342,0.00006794,0.00000586,0.00
 011447,-0.00010786,-0.00042252,-0.00012924,0.00060555,0.00048947,-0.00
 070094,-0.00124884,-0.00042826,-0.00705490,0.00343146,-0.01550488,-0.3
 0313146,0.08934231,-0.00421768,-0.01391420,0.00688380,0.00436316,0.000
 27723,0.00056899,0.00000688,0.00029367,-0.00040236,-0.00056406,0.00240
 092,0.00183386,0.00004482,0.00003314,-0.00002178,0.00008878,0.00011818
 ,0.00002910,0.00001691,0.00000658,-0.00000908,-0.00000869,0.00001167,-
 0.00001661,0.00001050,0.00000161,-0.00000624,-0.00000473,0.00000835,-0
 .00000239,0.00000696,0.00000538,0.00000276,-0.00000548,0.00000801,-0.0
 0000216,-0.00000542,0.00000484,-0.00000609,-0.00002177,-0.00000054,-0.
 00000478,-0.00003236,0.00000035,-0.00000542,-0.00001329,-0.00000265,-0
 .00000579,-0.00005847,-0.00001774,0.00001498,0.00000107,-0.00000401,0.
 00001851,0.00002181,0.00002868,-0.00002317,-0.00001402,0.00000546,-0.0
 0002087,-0.00001459,-0.00006522,0.00000241,0.00058529,0.00054033,-0.00
 032579,0.01652252,0.32204095,0.00097056,0.00022258,0.00006848,-0.00015
 310,-0.00044856,-0.00006053,-0.00003113,0.00032124,-0.00003073,0.00011
 180,-0.00001231,-0.00000976,-0.00001048,0.00003503,-0.00000346,-0.0000
 0355,-0.00002599,-0.00000922,-0.00001004,0.00003334,-0.00000462,0.0000
 4761,-0.00004893,-0.00000255,-0.00005193,0.00002162,-0.00001014,0.0000
 2588,0.00007531,-0.00001116,0.00005183,-0.00030147,-0.00013002,0.00001
 016,0.00010828,0.00001752,0.00039539,0.00087557,-0.00007932,-0.0001997
 1,0.00031010,-0.00016759,0.00001353,-0.00003549,0.00002714,-0.00001122
 ,-0.00004050,-0.00005507,-0.00005450,0.00001538,0.00012627,-0.00013337
 ,-0.00022335,0.00021014,-0.00203367,-0.00066466,-0.00288521,-0.0005028
 0,0.01216180,-0.00073511,0.01366608,0.08995203,-0.06894907,-0.00006534
 ,-0.00292420,0.00395944,0.00210118,0.00087405,0.00590084,0.00030859,-0
 .00048272,-0.00087114,0.00381679,0.00173590,0.00574161,-0.00010603,-0.
 00003133,0.00007439,-0.00004943,-0.00044717,-0.00029402,-0.00009914,0.
 00004302,-0.00002018,0.00008426,-0.00005200,0.00000297,0.00000465,-0.0
 0000631,-0.00000342,-0.00002542,0.00000037,-0.00001973,0.00000676,-0.0
 0000342,-0.00000333,0.00000292,-0.00000514,0.00000115,0.00000072,-0.00
 000692,0.00000003,-0.00000086,-0.00000778,0.00000196,0.00002663,-0.000
 00095,0.00000389,0.00000289,0.00000280,0.00000119,0.00004129,-0.000007
 86,-0.00000977,-0.00000989,-0.00002458,-0.00002376,-0.00001892,-0.0000
 1494,0.00000602,-0.00002072,-0.00000928,-0.00002746,-0.00002940,-0.000
 07679,-0.00003822,-0.00027033,0.00010917,0.00022267,-0.01606068,-0.099
 55482,0.06179609,-0.00014859,-0.00006151,-0.00008907,0.00002804,0.0000
 1502,0.00003898,-0.00006742,0.00010352,-0.00004134,0.00004541,0.000005
 78,0.00003149,0.00000311,-0.00000102,-0.00002111,-0.00001313,-0.000001
 17,-0.00001027,0.00003909,-0.00000444,0.00001737,-0.00005778,0.0000031
 1,0.00000128,0.00002671,-0.00000147,-0.00004163,-0.00001580,-0.0000048
 1,0.00003041,0.00004760,0.00013697,0.00000456,-0.00004117,-0.00012844,
 -0.00001985,-0.00005830,-0.00018332,-0.00024273,-0.00022871,0.00029979
 ,0.00005259,0.00000299,-0.00001593,0.00008407,0.00000885,-0.00002088,-
 0.00000111,-0.00000634,0.00004421,0.00001919,0.00007794,-0.00013825,0.
 00013400,-0.00019846,-0.00091155,0.00040857,-0.00158456,0.00465703,0.0
 0153831,-0.01639662,-0.01041611,0.00983091,-0.25959506,-0.07681418,0.1
 0446223,0.00190598,0.00148928,-0.00037160,0.00210244,0.00045665,0.0014
 1414,0.00021935,0.00060474,-0.00048068,0.00000016,0.00000221,0.0000101
 8,0.00002711,-0.00000042,-0.00001174,-0.00000018,-0.00000547,0.0000028
 8,-0.00002975,0.00003382,-0.00000348,-0.00001306,0.00000047,0.00000405
 ,-0.00000885,-0.00000206,-0.00001468,0.00000112,0.00000281,0.00000579,
 -0.00000756,0.00000182,0.00000395,0.00000032,-0.00000388,-0.00000707,-
 0.00002670,-0.00001648,0.00000091,-0.00000702,-0.00000463,-0.00000102,
 -0.00000236,0.00000936,-0.00000135,-0.00007374,-0.00011000,0.00003029,
 -0.00000023,-0.00000404,-0.00000613,-0.00001938,0.00000193,-0.00000876
 ,-0.00002927,0.00000565,-0.00002332,0.00000845,-0.00001615,0.00001939,
 0.00000255,0.00001537,-0.00001019,0.00049804,-0.00029974,-0.00146599,0
 .27326449,-0.00000612,0.00005078,0.00004568,-0.00000437,-0.00000471,0.
 00000695,-0.00000211,-0.00004758,0.00000629,-0.00000826,-0.00000452,-0
 .00000166,-0.00000062,0.00000488,-0.00000209,-0.00000224,-0.00000030,-
 0.00000226,0.00000635,-0.00000636,0.00000758,-0.00002206,0.00002148,-0
 .00000791,0.00001665,-0.00002438,0.00003477,-0.00003302,0.00002644,0.0
 0002324,0.00017609,-0.00025594,0.00001124,-0.00034308,0.00006600,0.000
 00208,-0.00014720,0.00025020,-0.00023311,0.00020611,-0.00029780,-0.000
 09524,-0.00000229,0.00005679,-0.00004658,-0.00001387,-0.00000596,-0.00
 000872,-0.00001125,-0.00000789,0.00001008,0.00000663,0.00010070,-0.000
 10004,0.00061565,0.00070979,-0.00010999,0.00375999,-0.00167522,0.00112
 817,0.01759641,0.00988119,-0.00864753,-0.07678710,-0.08749667,0.044671
 68,-0.02688493,-0.00493684,0.01174024,0.00137009,-0.00466049,0.0032168
 3,0.00087667,-0.00118588,-0.00006547,-0.00000240,-0.00000674,-0.000009
 38,-0.00001022,-0.00001889,-0.00001447,-0.00000310,0.00000267,-0.00000
 009,0.00000742,-0.00000684,-0.00000079,0.00000245,0.00000074,0.0000004
 1,0.00000188,0.00000142,0.,0.00000077,0.00000109,0.00000052,-0.0000018
 8,0.00000163,0.00000028,-0.00000053,0.00000049,-0.00000187,0.00000018,
 0.00000953,-0.00000730,0.00000123,0.00000459,0.00000005,-0.00000934,0.
 00000400,0.00000441,0.00000975,0.00007175,-0.00001957,-0.00000007,-0.0
 0000152,0.00001111,-0.00000193,0.00000080,-0.00000166,0.00000833,0.000
 00426,0.00000442,0.00000070,-0.00000237,-0.00000023,-0.00002413,-0.000
 01487,0.00002418,-0.00094814,0.00058332,-0.00107675,0.08183435,0.08828
 952,-0.00003509,-0.00000569,-0.00000252,0.00000533,0.00001449,0.000011
 64,0.00001636,-0.00005937,-0.00000447,-0.00000863,0.00000037,-0.000007
 36,-0.00000235,0.00000930,0.00000744,0.00000669,-0.00000131,-0.0000017
 1,-0.00001308,0.00000412,-0.00000495,0.00003262,-0.00001455,-0.0000057
 1,-0.00002836,0.00000059,0.00000451,0.00001742,-0.00000617,0.00010038,
 -0.00008390,0.00004000,0.00002530,0.00011039,-0.00001248,-0.00015041,-
 0.00020178,-0.00022988,-0.00058416,0.00002149,-0.00006316,-0.00017598,
 0.00000647,0.00004304,-0.00001386,-0.00001254,-0.00001644,-0.00000745,
 -0.00000530,0.00001056,0.00000842,0.00005113,0.00006860,-0.00008199,0.
 00013780,0.00021844,0.00053626,0.00149560,0.00096091,0.00571674,0.0009
 1698,0.00117401,0.00145612,0.10442398,0.04453588,-0.08478060,0.0089435
 2,0.00199628,-0.00153400,0.00103451,0.00350347,0.00506149,-0.00050331,
 -0.00005781,-0.00037971,0.00001037,0.00000570,-0.00001245,0.00001587,-
 0.00001263,0.00000100,0.00000071,0.,0.00000001,0.00000284,-0.00000829,
 -0.00000627,0.00000559,-0.00000214,-0.00000363,-0.00000127,0.00000250,
 0.00000062,0.00000193,-0.00000256,-0.00000322,0.00000466,-0.00000187,-
 0.00000136,-0.00000116,0.00000086,0.00000148,-0.00000071,0.00000167,-0
 .00000113,0.00000374,0.00000402,0.00000731,-0.00001140,0.00001179,0.00
 001030,-0.00002349,-0.00001895,0.00000530,-0.00000333,-0.00000868,-0.0
 0000479,0.00000156,0.00000124,-0.00000181,0.00000156,-0.00000155,0.000
 00227,-0.00000076,-0.00001258,-0.00000702,-0.00003231,0.00001807,0.000
 00261,-0.00123832,-0.00132123,-0.00301907,-0.11409473,-0.04963478,0.08
 074135,0.00002195,-0.00001788,-0.00001179,-0.00001382,-0.00002900,-0.0
 0000078,-0.00002783,0.00006665,-0.00000813,0.00002151,-0.00000553,0.00
 001573,0.00000346,-0.00000725,-0.00002237,-0.00001120,0.00000155,-0.00
 000792,0.00003911,-0.00000867,0.00001940,-0.00007148,0.00001411,-0.000
 00460,0.00006574,0.00000236,-0.00000119,-0.00001116,-0.00005892,0.0000
 0804,0.00011037,0.00080624,-0.00007634,0.00015263,-0.00042288,0.000029
 43,-0.00089867,0.00093240,-0.00005488,-0.00016516,-0.00028765,0.000138
 54,-0.00002170,0.00008661,0.00003190,-0.00002025,-0.00002962,-0.000009
 70,-0.00000884,0.00000517,0.00001500,0.00004574,-0.00002192,0.00003560
 ,-0.00004417,-0.00008313,-0.00023475,-0.00009476,-0.00083793,0.0000421
 5,0.00200705,-0.00028374,0.00171483,0.00504970,-0.00314181,0.00036579,
 -0.23158649,0.13656434,0.02374606,-0.01663614,0.01728975,0.00131045,-0
 .00200680,-0.00234770,0.00399435,-0.00000592,-0.00000576,-0.00000274,-
 0.00000089,0.00000421,0.00000359,0.00000186,-0.00000174,-0.00000275,0.
 00000044,0.00000978,0.00000065,-0.00000477,0.00000237,0.00000404,-0.00
 000223,-0.00000084,-0.00000778,0.00000041,0.00000342,0.00000568,-0.000
 00838,0.00000362,0.00000336,0.00000006,-0.00000257,-0.00000751,-0.0000
 2147,-0.00000660,-0.00000656,-0.00003417,-0.00000690,-0.00000218,-0.00
 000644,0.00000156,-0.00000666,-0.00006728,0.00006611,-0.00002566,0.000
 00381,-0.00000331,0.00000799,-0.00001882,0.00001161,-0.00001548,-0.000
 00644,0.00000922,-0.00000925,0.00000329,-0.00000450,0.00001074,-0.0000
 1526,0.00002084,-0.00001539,0.00012173,-0.00020743,0.00007827,0.000295
 62,-0.00010715,-0.00145822,0.24327532,0.00000058,-0.00003346,0.0000174
 6,-0.00000499,-0.00000919,0.00000699,0.00006029,-0.00001213,-0.0000206
 2,-0.00001780,-0.00000050,-0.00001899,-0.00000090,-0.00000174,0.000007
 02,0.00001042,0.00000190,0.00000011,-0.00001234,-0.00000556,-0.0000034
 9,0.00001878,0.00000010,-0.00000352,-0.00000761,0.00000583,0.00000690,
 0.00001146,-0.00002352,-0.00000996,-0.00000903,0.00003744,0.00001041,0
 .00006652,-0.00001698,-0.00000074,-0.00037627,0.00065036,0.00002017,-0
 .00012512,-0.00010368,0.00000196,-0.00000337,0.00003293,-0.00000749,-0
 .00000789,-0.00000758,0.00000546,0.00001079,0.00000258,-0.00002195,-0.
 00008868,-0.00000855,0.00006500,-0.00000690,0.00001010,-0.00018658,-0.
 00106073,-0.00045029,0.00020184,-0.00096471,-0.00414392,0.00388427,0.0
 2490988,-0.01275245,-0.00354414,0.13661697,-0.16027485,-0.00721758,-0.
 01005861,0.00994014,0.00133917,-0.00203900,0.00058792,0.00288681,0.000
 01181,0.00000910,-0.00000535,0.00000381,0.00002553,0.00002646,0.000009
 70,0.00000115,-0.00000560,0.00000453,-0.00001226,-0.00000085,0.0000083
 1,-0.00000028,-0.00000279,0.00000130,0.00000214,0.00000473,0.00000075,
 -0.00000121,-0.00000246,0.00000369,-0.00000020,-0.00000223,-0.00000109
 ,0.00000230,0.00000197,0.00000445,0.00000199,0.00000093,-0.00000675,0.
 00000061,0.00000171,0.00000598,-0.00000010,0.00000105,-0.00000982,0.00
 003236,-0.00001405,-0.00000266,-0.00000453,-0.00000005,0.00000787,0.00
 000680,-0.00000419,0.00000525,-0.00000101,0.00000412,-0.00000691,-0.00
 000530,-0.00000739,0.00001464,0.00006176,-0.00005738,0.00121229,-0.000
 80161,-0.00012193,-0.00074672,0.00058309,-0.00123154,-0.14737665,0.166
 36236,0.00007581,-0.00004800,0.00003131,-0.00002764,-0.00006454,-0.000
 02266,-0.00000561,0.00006163,0.00000613,0.00001609,0.00000059,-0.00000
 198,-0.00000295,0.00000346,0.00000516,0.00000072,-0.00000415,0.0000001
 6,-0.00000938,0.00000759,-0.00000143,0.00002443,-0.00000815,-0.0000062
 6,-0.00001889,-0.00000093,0.00000699,-0.00000112,0.00003618,-0.0000020
 4,-0.00003445,-0.00024668,0.00006100,-0.00009979,0.00012144,-0.0000228
 2,0.00048013,-0.00041326,0.00041549,0.00005287,0.00005446,-0.00025876,
 -0.00001163,0.00000910,-0.00000991,-0.00000311,-0.00000241,-0.00001538
 ,-0.00000636,-0.00001725,0.00002217,0.00004016,0.00000981,-0.00000276,
 -0.00016290,-0.00019106,-0.00053525,0.00009890,0.00027736,-0.00097501,
 0.00207299,0.00366532,0.00473619,-0.00898795,0.00637140,0.00404261,0.0
 2385773,-0.00709104,-0.04234753,0.01004342,-0.00848875,0.00251101,0.00
 394449,0.00282487,0.00475414,0.00000122,0.00001141,0.00001545,-0.00001
 582,-0.00003919,-0.00001466,-0.00001186,0.00000586,-0.00000102,0.00001
 233,-0.00001936,0.00000627,0.00000112,-0.00000225,-0.00000145,-0.00000
 156,0.00000030,-0.00000124,0.00000101,-0.00000162,-0.00000150,0.000002
 54,-0.00000148,-0.00000050,0.00000013,-0.00000087,0.00000044,0.0000004
 0,-0.00000010,-0.00000162,0.00001099,0.00000214,0.00000154,0.00000112,
 -0.00000378,0.00000157,0.00004710,-0.00006108,0.00002216,-0.00000966,-
 0.00000660,0.00000050,-0.00000476,-0.00000332,0.00000181,-0.00000028,0
 .00000166,0.00000287,0.00000021,0.00000087,-0.00000109,-0.00001549,0.0
 0000171,0.00000229,-0.00042084,0.00041189,0.00021974,-0.00123732,-0.00
 145760,-0.00303758,-0.02812749,0.00545950,0.03359331,-0.00013296,0.000
 00139,-0.00004549,0.00000267,0.00004510,0.00000215,-0.00016055,0.00013
 781,-0.00002804,0.00007170,0.00006244,0.00001686,-0.00000913,0.0000018
 8,0.00000956,0.00000288,-0.00000766,0.00001627,-0.00005077,0.00007995,
 -0.00006450,0.00019597,-0.00020012,0.00005874,-0.00003055,0.00022167,-
 0.00014848,0.00027839,-0.00051718,0.00018954,-0.00288568,0.00598270,-0
 .00023107,0.00091792,-0.00386823,0.00045220,-0.00040294,-0.00361297,-0
 .00067023,-0.00008075,0.00041889,-0.00013747,0.00002228,-0.00005862,0.
 00003849,0.00000522,0.00001485,-0.00000794,0.00003016,0.00002709,0.000
 00175,-0.00016048,-0.00007319,0.00029439,0.00027572,0.00102716,-0.0006
 8372,-0.00336100,0.00261597,0.00260583,-0.00108790,0.00021687,0.000034
 64,-0.00341321,-0.00046398,0.00379216,0.00296452,-0.02471813,0.0078848
 0,-0.05552967,-0.01693601,0.01310555,0.00769797,0.02499469,-0.00947968
 ,0.00001571,0.00001803,0.00001963,-0.00001770,-0.00002890,-0.00000120,
 -0.00002793,-0.00000066,0.00001898,-0.00002194,0.00001026,0.00000136,-
 0.00001779,-0.00000845,-0.00000751,-0.00001578,-0.00000756,-0.00000351
 ,-0.00000133,-0.00001308,-0.00000555,0.00001754,-0.00001771,0.00000124
 ,0.00000369,-0.00000844,0.00001102,0.00002664,-0.00003677,0.00003699,-
 0.00005821,-0.00005831,0.00004183,0.00002685,-0.00001909,0.00001125,0.
 00001831,-0.00011287,0.00004465,0.00001813,0.00001549,-0.00003560,-0.0
 0000579,-0.00000929,0.00000708,-0.00002946,-0.00002204,-0.00000790,0.0
 0000608,0.00000419,0.00000262,0.00000265,-0.00002752,0.00001798,0.0000
 1955,-0.00008481,-0.00035011,0.00002464,-0.00112029,0.00049093,0.00059
 072,-0.00006554,-0.00156904,0.05426558,0.00013206,-0.00000974,0.000086
 84,-0.00000300,-0.00003580,-0.00000831,0.00005634,-0.00005624,0.000012
 44,-0.00001779,-0.00002185,-0.00001494,-0.00000151,0.00000068,0.000004
 54,0.00000208,0.00000490,-0.00000280,0.00000322,-0.00000601,0.00000554
 ,-0.00001576,0.00002032,-0.00001164,0.00002217,-0.00001338,0.00003350,
 -0.00013056,0.00005016,0.00006855,0.00076350,0.00043910,-0.00021364,-0
 .00356036,-0.00221726,0.00092021,-0.00127642,-0.00007110,-0.00056341,0
 .00004637,-0.00037923,-0.00002533,-0.00002301,0.00007529,-0.00005753,-
 0.00001586,-0.00001151,-0.00000002,-0.00000281,-0.00001621,-0.00000133
 ,0.00008742,-0.00001366,-0.00015499,-0.00029279,-0.00049412,0.00032756
 ,0.00322842,0.00055435,0.00059388,0.00038987,0.00038986,-0.00048898,-0
 .00054558,0.00206032,0.00174528,0.00059668,-0.00257822,0.00132548,-0.0
 1249108,-0.31950124,0.09748602,-0.00265700,-0.01310313,0.00652374,0.00
 000507,-0.00000460,-0.00002488,-0.00001562,-0.00000218,0.00000763,0.00
 000522,0.00000057,-0.00000354,0.00001468,-0.00001152,0.00000037,0.0000
 1033,0.00000145,0.00000225,0.00000282,0.00000158,0.00000211,0.00000038
 ,-0.00000012,0.00000034,-0.00000049,0.00000166,-0.00000034,-0.00000112
 ,0.00000159,-0.00000180,0.00000178,0.00000485,-0.00000537,0.00001685,-
 0.00000388,0.00000416,-0.00001039,-0.00000534,0.00001082,0.00002000,-0
 .00000248,-0.00000299,0.00000240,0.00000227,0.00000743,0.00000087,0.00
 000496,-0.00000388,0.00000957,0.00000355,0.00000619,-0.00000007,0.0000
 0215,-0.00000150,-0.00000593,-0.00000275,-0.00000415,-0.00014584,-0.00
 013104,-0.00024140,0.00018878,-0.00006534,0.00009774,-0.00059484,0.000
 31245,-0.00116506,0.01620097,0.33482589,0.00010046,-0.00000117,0.00010
 143,-0.00002851,-0.00003890,-0.00000623,0.00001049,0.00003618,-0.00002
 308,0.00001630,-0.00000581,-0.00000528,-0.00000439,0.00000418,0.000005
 56,-0.00000004,-0.00000268,-0.00000821,0.00000967,-0.00000239,0.000003
 24,0.00001047,0.00000187,-0.00003021,0.00007950,-0.00001476,0.00004592
 ,-0.00003834,-0.00000946,0.00064521,0.00014390,-0.00083469,0.00024580,
 0.00059534,0.00085921,-0.00155693,-0.00096620,-0.00012131,-0.00310431,
 0.00000201,-0.00022004,-0.00020195,-0.00006475,0.00016958,-0.00000774,
 -0.00001241,-0.00003358,-0.00002106,-0.00001356,0.00002794,0.00001077,
 0.00000856,-0.00008558,0.00009660,-0.00008196,-0.00007914,-0.00021836,
 0.00213558,0.00093225,0.00561082,0.00001567,-0.00056900,-0.00057632,0.
 00408418,0.00186408,0.00519767,-0.00050031,0.01089800,-0.00064649,0.01
 168021,0.09787373,-0.07329630,0.00043240,-0.00319793,0.00534989,0.0000
 0806,0.00000030,-0.00001916,-0.00002981,0.00001399,0.00001529,0.000000
 72,0.00000322,0.00000297,0.00001193,-0.00000624,0.00000161,0.00000232,
 -0.00000132,-0.00000139,-0.00000334,0.00000190,-0.00000257,0.00000204,
 -0.00000082,-0.00000069,0.00000291,-0.00000147,0.00000050,-0.00000284,
 0.00000057,-0.00000488,-0.00001308,-0.00000402,-0.00000735,-0.00000386
 ,0.00003070,0.00001344,-0.00011399,-0.00000333,0.00000104,0.00000776,-
 0.00005825,0.00001337,-0.00000279,-0.00000823,-0.00002278,-0.00001075,
 0.00000823,-0.00000899,0.00000149,-0.00000438,-0.00000733,0.00000281,-
 0.00000827,-0.00001003,0.00001232,0.00000833,-0.00002779,-0.00035281,-
 0.00027837,-0.00090787,0.00005963,0.00059487,0.00013266,-0.00146148,-0
 .00146317,-0.00319784,-0.01573148,-0.10627481,0.06642733\\-0.00002025,
 0.00002165,0.00000838,0.00001523,-0.00000670,0.00000187,-0.00000025,-0
 .00001783,-0.00000847,0.00000571,0.00001480,0.00000640,-0.00000781,-0.
 00001101,-0.00000051,-0.00001583,-0.00001972,0.00000827,-0.00003323,0.
 00004372,-0.00003693,0.00004118,-0.00003854,0.00003290,-0.00002181,0.0
 0000385,0.00000489,0.00000836,0.00001237,-0.00001790,-0.00002396,0.000
 06590,-0.00000235,0.00001962,-0.00003255,0.00000451,0.00001549,-0.0000
 1898,-0.00001014,0.00001452,-0.00000323,0.00000489,0.00000284,0.000006
 46,0.00000252,0.00001347,0.00001920,-0.00001899,-0.00000632,-0.0000134
 1,0.00000873,-0.00001855,0.00002662,-0.00000146,0.00001797,-0.00003474
 ,0.00000176,-0.00001952,0.00003871,-0.00000715,-0.00000607,-0.00001233
 ,0.00000574,-0.00000017,-0.00001007,0.00000473,-0.00000655,0.00000484,
 0.00000005,0.00001249,-0.00000165,-0.00000315,-0.00000141,-0.00001525,
 0.00000806,0.00000265,-0.00000249,-0.00000281,0.00000106,-0.00000233,-
 0.00000639,-0.00000241,0.00000028,-0.00000459,-0.00000466,0.00000090,-
 0.00000376,-0.00000106,0.00000150,-0.00000035,0.00000019,-0.00000498,0
 .00000123,0.00001041,0.00000485,0.00000327,0.00000737,-0.00000219,-0.0
 0000211,0.00000904,0.00000246,0.00000263,-0.00000020,0.00000018,-0.000
 00337,0.00000296,-0.00000188,0.00000838,-0.00000285,-0.00000143,0.0000
 0653,0.00000152,0.00000429,0.00000416,-0.00000222,-0.00000384,-0.00000
 270,0.00000156,-0.00000786,0.00000267,0.00000246,-0.00000059,-0.000000
 62,0.00000047,-0.00000167,-0.00000263,0.00000318,-0.00000507,-0.000001
 67,0.00000113,0.00000064,-0.00000159,-0.00000275,0.00000181,-0.0000005
 0,0.00000017,-0.00000137,0.00000161,-0.00001316,-0.00000330,0.00000594
 \\\@
 The archive entry for this job was punched.


 YOU SHOULDN'T LET PEOPLE DRIVE YOU CRAZY
 WHEN YOU KNOW IT'S WITHIN WALKING DISTANCE.
 Job cpu time:       0 days  8 hours 22 minutes 33.8 seconds.
 Elapsed time:       0 days  0 hours 42 minutes 17.9 seconds.
 File lengths (MBytes):  RWF=   1517 Int=      0 D2E=      0 Chk=     30 Scr=      1
 Normal termination of Gaussian 16 at Tue Sep  6 13:18:37 2022.
