Job Start Time: Tue Sep  6 13:41:52 MDT 2022
SLURM Job ID: 71069
SLURM Job Name: Strychnine_rdkit_conf_2_SP
 Entering Gaussian System, Link 0=/opt/apps/Gaussian/G16C/g16/g16
 Initial command:
 /opt/apps/Gaussian/G16C/g16/l1.exe "/tmp/Gau-2662536.inp" -scrdir="/tmp/"
 Entering Link 1 = /opt/apps/Gaussian/G16C/g16/l1.exe PID=   2662548.
  
 Copyright (c) 1988-2019, Gaussian, Inc.  All Rights Reserved.
  
 This is part of the Gaussian(R) 16 program.  It is based on
 the Gaussian(R) 09 system (copyright 2009, Gaussian, Inc.),
 the Gaussian(R) 03 system (copyright 2003, Gaussian, Inc.),
 the Gaussian(R) 98 system (copyright 1998, Gaussian, Inc.),
 the Gaussian(R) 94 system (copyright 1995, Gaussian, Inc.),
 the Gaussian 92(TM) system (copyright 1992, Gaussian, Inc.),
 the Gaussian 90(TM) system (copyright 1990, Gaussian, Inc.),
 the Gaussian 88(TM) system (copyright 1988, Gaussian, Inc.),
 the Gaussian 86(TM) system (copyright 1986, Carnegie Mellon
 University), and the Gaussian 82(TM) system (copyright 1983,
 Carnegie Mellon University). Gaussian is a federally registered
 trademark of Gaussian, Inc.
  
 This software contains proprietary and confidential information,
 including trade secrets, belonging to Gaussian, Inc.
  
 This software is provided under written license and may be
 used, copied, transmitted, or stored only in accord with that
 written license.
  
 The following legend is applicable only to US Government
 contracts under FAR:
  
                    RESTRICTED RIGHTS LEGEND
  
 Use, reproduction and disclosure by the US Government is
 subject to restrictions as set forth in subparagraphs (a)
 and (c) of the Commercial Computer Software - Restricted
 Rights clause in FAR 52.227-19.
  
 Gaussian, Inc.
 340 Quinnipiac St., Bldg. 40, Wallingford CT 06492
  
  
 ---------------------------------------------------------------
 Warning -- This program may not be used in any manner that
 competes with the business of Gaussian, Inc. or will provide
 assistance to any competitor of Gaussian, Inc.  The licensee
 of this program is prohibited from giving any competitor of
 Gaussian, Inc. access to this program.  By using this program,
 the user acknowledges that Gaussian, Inc. is engaged in the
 business of creating and licensing software in the field of
 computational chemistry and represents and warrants to the
 licensee that it is not a competitor of Gaussian, Inc. and that
 it will not use this program in any manner prohibited above.
 ---------------------------------------------------------------
  

 Cite this work as:
 Gaussian 16, Revision C.01,
 M. J. Frisch, G. W. Trucks, H. B. Schlegel, G. E. Scuseria, 
 M. A. Robb, J. R. Cheeseman, G. Scalmani, V. Barone, 
 G. A. Petersson, H. Nakatsuji, X. Li, M. Caricato, A. V. Marenich, 
 J. Bloino, B. G. Janesko, R. Gomperts, B. Mennucci, H. P. Hratchian, 
 J. V. Ortiz, A. F. Izmaylov, J. L. Sonnenberg, D. Williams-Young, 
 F. Ding, F. Lipparini, F. Egidi, J. Goings, B. Peng, A. Petrone, 
 T. Henderson, D. Ranasinghe, V. G. Zakrzewski, J. Gao, N. Rega, 
 G. Zheng, W. Liang, M. Hada, M. Ehara, K. Toyota, R. Fukuda, 
 J. Hasegawa, M. Ishida, T. Nakajima, Y. Honda, O. Kitao, H. Nakai, 
 T. Vreven, K. Throssell, J. A. Montgomery, Jr., J. E. Peralta, 
 F. Ogliaro, M. J. Bearpark, J. J. Heyd, E. N. Brothers, K. N. Kudin, 
 V. N. Staroverov, T. A. Keith, R. Kobayashi, J. Normand, 
 K. Raghavachari, A. P. Rendell, J. C. Burant, S. S. Iyengar, 
 J. Tomasi, M. Cossi, J. M. Millam, M. Klene, C. Adamo, R. Cammi, 
 J. W. Ochterski, R. L. Martin, K. Morokuma, O. Farkas, 
 J. B. Foresman, and D. J. Fox, Gaussian, Inc., Wallingford CT, 2019.
 
 ******************************************
 Gaussian 16:  AS64L-G16RevC.01  3-Jul-2019
                 6-Sep-2022 
 ******************************************
 %nprocshared=12
 Will use up to   12 processors via shared memory.
 %mem=16GB
 ------------------------------------------------------------
 # B3LYP/6-311+G(2d,p) scrf=(solvent=chloroform,smd) nmr=giao
 ------------------------------------------------------------
 1/38=1,172=1/1;
 2/12=2,17=6,18=5,40=1/2;
 3/5=4,6=6,7=112,11=2,25=1,30=1,70=32201,72=7,74=-5/1,2,3,8;
 4//1;
 5/5=2,38=5,53=7/2;
 8/6=1,10=90,11=11/1;
 10/13=100,45=16/2;
 6/7=2,8=2,9=2,10=2,28=1/1;
 99/9=1/99;
 --------------------------
 Strychnine_rdkit_conf_2_SP
 --------------------------
 Symbolic Z-matrix:
 Charge =  0 Multiplicity = 1
 C                     0.45182  -1.88428   1.69969 
 C                    -0.99762  -2.38434   1.72969 
 N                    -1.34566  -2.67259   0.32337 
 C                    -2.70732  -2.23453  -0.0552 
 C                    -2.73033  -0.74528  -0.34347 
 C                    -3.43409   0.10659   0.41584 
 C                    -3.42979   1.61423   0.4027 
 O                    -2.73036   2.24831  -0.65937 
 C                    -1.30432   2.17218  -0.72173 
 C                    -0.5856    2.89937   0.45113 
 C                     0.89717   2.53089   0.52808 
 O                     1.79912   3.36206   0.51868 
 N                     1.11501   1.16714   0.58706 
 C                    -0.04278   0.26534   0.38452 
 C                    -0.74198   0.73726  -0.90344 
 C                    -1.72571  -0.32258  -1.42143 
 C                    -0.86078  -1.53474  -1.8265 
 C                    -0.26063  -2.15191  -0.56136 
 C                     0.56664  -1.16858   0.32725 
 C                     2.00931  -0.86957  -0.03322 
 C                     3.02398  -1.72645  -0.44851 
 C                     4.32072  -1.22237  -0.62343 
 C                     4.59157   0.12518  -0.36732 
 C                     3.58598   1.00263   0.05825 
 C                     2.29838   0.48588   0.21179 
 H                     0.6965   -1.22652   2.53959 
 H                     1.15529  -2.72378   1.72041 
 H                    -1.11305  -3.27946   2.3526 
 H                    -1.65881  -1.60863   2.14701 
 H                    -3.38531  -2.49038   0.76376 
 H                    -3.03748  -2.81434  -0.92548 
 H                    -4.08957  -0.30813   1.18433 
 H                    -4.45954   1.98035   0.30907 
 H                    -3.07143   1.97701   1.382 
 H                    -1.092     2.73236  -1.63664 
 H                    -1.05774   2.62529   1.40242 
 H                    -0.65815   3.98231   0.34544 
 H                    -0.72224   0.34938   1.23604 
 H                     0.05426   0.82268  -1.6557 
 H                    -2.25843   0.07051  -2.29561 
 H                    -0.06107  -1.2191   -2.50503 
 H                    -1.44367  -2.29035  -2.36284 
 H                     0.39866  -2.98632  -0.83752 
 H                     2.81887  -2.7774   -0.63426 
 H                     5.11708  -1.88303  -0.95255 
 H                     5.60032   0.50539  -0.5 
 H                     3.78414   2.0478    0.25546 
 
                          Input orientation:                          
 ---------------------------------------------------------------------
 Center     Atomic      Atomic             Coordinates (Angstroms)
 Number     Number       Type             X           Y           Z
 ---------------------------------------------------------------------
      1          6           0        0.451819   -1.884280    1.699687
      2          6           0       -0.997620   -2.384344    1.729694
      3          7           0       -1.345657   -2.672587    0.323372
      4          6           0       -2.707323   -2.234528   -0.055199
      5          6           0       -2.730325   -0.745276   -0.343470
      6          6           0       -3.434091    0.106589    0.415842
      7          6           0       -3.429788    1.614233    0.402699
      8          8           0       -2.730362    2.248307   -0.659371
      9          6           0       -1.304315    2.172184   -0.721734
     10          6           0       -0.585597    2.899368    0.451127
     11          6           0        0.897169    2.530893    0.528075
     12          8           0        1.799123    3.362058    0.518681
     13          7           0        1.115011    1.167137    0.587062
     14          6           0       -0.042779    0.265339    0.384519
     15          6           0       -0.741981    0.737255   -0.903444
     16          6           0       -1.725710   -0.322579   -1.421429
     17          6           0       -0.860775   -1.534737   -1.826503
     18          6           0       -0.260626   -2.151908   -0.561357
     19          6           0        0.566642   -1.168576    0.327253
     20          6           0        2.009308   -0.869567   -0.033220
     21          6           0        3.023984   -1.726452   -0.448507
     22          6           0        4.320718   -1.222365   -0.623432
     23          6           0        4.591568    0.125176   -0.367316
     24          6           0        3.585977    1.002625    0.058253
     25          6           0        2.298377    0.485877    0.211793
     26          1           0        0.696504   -1.226518    2.539586
     27          1           0        1.155285   -2.723779    1.720408
     28          1           0       -1.113045   -3.279461    2.352596
     29          1           0       -1.658810   -1.608625    2.147005
     30          1           0       -3.385311   -2.490376    0.763756
     31          1           0       -3.037476   -2.814339   -0.925478
     32          1           0       -4.089569   -0.308128    1.184334
     33          1           0       -4.459540    1.980352    0.309067
     34          1           0       -3.071432    1.977012    1.381997
     35          1           0       -1.092002    2.732364   -1.636643
     36          1           0       -1.057742    2.625288    1.402416
     37          1           0       -0.658154    3.982309    0.345436
     38          1           0       -0.722243    0.349384    1.236040
     39          1           0        0.054257    0.822676   -1.655703
     40          1           0       -2.258427    0.070510   -2.295605
     41          1           0       -0.061067   -1.219099   -2.505026
     42          1           0       -1.443668   -2.290352   -2.362841
     43          1           0        0.398659   -2.986321   -0.837523
     44          1           0        2.818874   -2.777398   -0.634255
     45          1           0        5.117084   -1.883031   -0.952545
     46          1           0        5.600324    0.505393   -0.499999
     47          1           0        3.784142    2.047803    0.255463
 ---------------------------------------------------------------------
                    Distance matrix (angstroms):
                    1          2          3          4          5
     1  C    0.000000
     2  C    1.533570   0.000000
     3  N    2.397205   1.477144   0.000000
     4  C    3.630768   2.476161   1.479644   0.000000
     5  C    3.949413   3.160193   2.465058   1.517070   0.000000
     6  C    4.551056   3.723888   3.477632   2.496177   1.340714
     7  C    5.384110   4.864666   4.767255   3.942662   2.571634
     8  O    5.724483   5.492857   5.205611   4.523424   3.010205
     9  C    5.040058   5.183195   4.956386   4.672452   3.269275
    10  C    5.051576   5.451799   5.625006   5.578080   4.302868
    11  C    4.589637   5.403117   5.669954   6.003483   4.965036
    12  O    5.543831   6.504572   6.807696   7.208271   6.174900
    13  N    3.314952   4.287404   4.568140   5.156943   4.394294
    14  C    2.568104   3.121224   3.214442   3.680011   2.962130
    15  C    3.882511   4.091839   3.673762   3.662456   2.542633
    16  C    4.113625   3.835436   2.951493   2.546703   1.532945
    17  C    3.778770   3.658838   2.480277   2.652728   2.513534
    18  C    2.385691   2.417871   1.493702   2.499870   2.850527
    19  C    1.552093   2.427313   2.432890   3.464299   3.391024
    20  C    2.541335   3.800530   3.825419   4.910215   4.751402
    21  C    3.354949   4.620680   4.537040   5.767210   5.838306
    22  C    4.561074   5.930608   5.925149   7.123252   7.072708
    23  C    5.044595   6.475659   6.599634   7.677202   7.373491
    24  C    4.566341   5.939245   6.156175   7.077970   6.565989
    25  C    3.352797   4.626639   4.823622   5.703413   5.206909
    26  H    1.094510   2.206024   3.342625   4.397162   4.504083
    27  H    1.095469   2.179519   2.865142   4.279239   4.824109
    28  H    2.195819   1.096615   2.130764   3.071007   4.038126
    29  H    2.175048   1.101390   2.134413   2.518102   2.845344
    30  H    3.995859   2.577857   2.094595   1.093532   2.168024
    31  H    4.464491   3.375773   2.107599   1.096616   2.171197
    32  H    4.834672   3.764072   3.723033   2.675456   2.091131
    33  H    6.402394   5.749230   5.598778   4.579101   3.293180
    34  H    5.236774   4.841799   5.071268   4.464883   3.241056
    35  H    5.901515   6.125507   5.754954   5.457128   4.055907
    36  H    4.764803   5.020671   5.414306   5.335126   4.148054
    37  H    6.122328   6.524238   6.690350   6.558099   5.207547
    38  H    2.565667   2.791558   3.217750   3.504917   2.779483
    39  H    4.329470   4.780412   4.253629   4.419778   3.454609
    40  H    5.208550   4.880469   3.900868   3.245632   2.167724
    41  H    4.287788   4.490855   3.429670   3.746387   3.467243
    42  H    4.501322   4.117844   2.715041   2.631568   2.849668
    43  H    2.766723   2.983718   2.118666   3.290038   3.880324
    44  H    3.442077   4.506481   4.274500   5.582908   5.916729
    45  H    5.366473   6.695919   6.634635   7.883535   7.952816
    46  H    6.087385   7.540224   7.682718   8.759110   8.425461
    47  H    5.352704   6.684499   6.971480   7.782929   7.113248
                    6          7          8          9         10
     6  C    0.000000
     7  C    1.507707   0.000000
     8  O    2.497654   1.420999   0.000000
     9  C    3.177532   2.468460   1.429438   0.000000
    10  C    3.989333   3.121432   2.501420   1.555942   0.000000
    11  C    4.964842   4.424765   3.827383   2.556800   1.529801
    12  O    6.164023   5.514513   4.810871   3.547641   2.430131
    13  N    4.674228   4.570458   4.184426   2.928516   2.431290
    14  C    3.395170   3.645775   3.499281   2.539946   2.690204
    15  C    3.063611   3.114387   2.509285   1.551857   2.556179
    16  C    2.545254   3.159520   2.863479   2.625069   3.897084
    17  C    3.787350   4.635211   4.378239   3.893393   4.992455
    18  C    4.015795   5.015656   5.046890   4.451155   5.161988
    19  C    4.199971   4.870438   4.849614   3.970079   4.229795
    20  C    5.548435   5.995253   5.707686   4.550428   4.601412
    21  C    6.768594   7.316823   6.996833   5.831654   5.936045
    22  C    7.936200   8.316825   7.859045   6.570664   6.497329
    23  C    8.063801   8.194655   7.629131   6.251183   5.930348
    24  C    7.086050   7.050792   6.477874   5.088340   4.599349
    25  C    5.748625   5.841362   5.399380   4.085890   3.768226
    26  H    4.832109   5.446323   5.835336   5.117681   4.798789
    27  H    5.547544   6.448069   6.744126   5.998678   6.021754
    28  H    4.539119   5.754793   6.499529   6.261671   6.486271
    29  H    3.015047   4.070108   4.888752   4.759186   4.934551
    30  H    2.620620   4.120698   4.990928   5.317583   6.081569
    31  H    3.238559   4.640066   5.078929   5.283064   6.368139
    32  H    1.091889   2.177553   3.432499   4.188399   4.806604
    33  H    2.138676   1.096904   1.999932   3.324875   3.983994
    34  H    2.136225   1.104107   2.087370   2.754356   2.810095
    35  H    4.073422   3.297632   1.968145   1.093589   2.154790
    36  H    3.600584   2.765550   2.681555   2.185890   1.096810
    37  H    4.767808   3.645959   2.882784   2.198392   1.090503
    38  H    2.843553   3.102435   3.351273   2.737569   2.671550
    39  H    4.119788   4.123366   3.283170   2.130537   3.026681
    40  H    2.955576   3.322049   2.764559   2.793642   4.283145
    41  H    4.654698   5.275501   4.749156   4.028225   5.096640
    42  H    4.174708   5.180605   5.015657   4.756772   5.965559
    43  H    5.082026   6.112304   6.101134   5.433572   6.104975
    44  H    6.965605   7.707624   7.486813   6.442570   6.707768
    45  H    8.885587   9.333625   8.873348   7.598184   7.573784
    46  H    9.089470   9.142610   8.512548   7.106434   6.700849
    47  H    7.476424   7.228447   6.581480   5.182932   4.456239
                   11         12         13         14         15
    11  C    0.000000
    12  O    1.226558   0.000000
    13  N    1.382304   2.300079   0.000000
    14  C    2.456999   3.605589   1.481466   0.000000
    15  C    2.820141   3.920362   2.419675   1.539622   0.000000
    16  C    4.338475   5.455733   3.784572   2.537588   1.535995
    17  C    5.016348   6.045953   4.126639   2.966144   2.455218
    18  C    4.945298   5.984385   3.771910   2.604846   2.948896
    19  C    3.719630   4.699181   2.413248   1.559098   2.619027
    20  C    3.621468   4.272636   2.309260   2.381927   3.302841
    21  C    4.858193   5.322469   3.617933   3.750493   4.523197
    22  C    5.208992   5.355352   4.177508   4.719040   5.435940
    23  C    4.498642   4.365793   3.752728   4.697028   5.395259
    24  C    3.128262   2.995291   2.532267   3.717245   4.441453
    25  C    2.499102   2.935277   1.416085   2.357856   3.248187
    26  H    4.266683   5.133698   3.117223   2.723323   4.216645
    27  H    5.394429   6.236673   4.052817   3.486371   4.739512
    28  H    6.413271   7.480223   5.277649   4.193376   5.183965
    29  H    5.127336   6.270281   4.222838   3.038035   3.955878
    30  H    6.603660   7.822365   5.801855   4.348598   4.492700
    31  H    6.794538   7.976601   5.948368   4.490960   4.228901
    32  H    5.775662   6.970657   5.442499   4.164742   4.081420
    33  H    5.389378   6.412793   5.640409   4.738643   4.103135
    34  H    4.097043   5.136728   4.337525   3.619050   3.490928
    35  H    2.946760   3.660675   3.502243   3.357406   2.154195
    36  H    2.143609   3.079853   2.740778   2.763263   2.996892
    37  H    2.135180   2.540263   3.335819   3.767769   3.478089
    38  H    2.807613   3.993507   2.113148   1.092622   2.174448
    39  H    2.897825   3.771069   2.504765   2.117202   1.098720
    40  H    4.897391   5.934493   4.570825   3.482832   2.163855
    41  H    4.917353   5.795698   4.079006   3.248594   2.618402
    42  H    6.089443   7.125209   5.215649   4.005251   3.433454
    43  H    5.705525   6.640972   4.449024   3.501649   3.894923
    44  H    5.763845   6.329461   4.467004   4.299443   5.010483
    45  H    6.283522   6.378427   5.262177   5.746949   6.418485
    46  H    5.222954   4.862856   4.662364   5.717046   6.359352
    47  H    2.939780   2.395172   2.830157   4.223643   4.852462
                   16         17         18         19         20
    16  C    0.000000
    17  C    1.543219   0.000000
    18  C    2.496525   1.530253   0.000000
    19  C    3.004742   2.609647   1.562351   0.000000
    20  C    4.022024   3.449013   2.660062   1.516784   0.000000
    21  C    5.047478   4.126376   3.313972   2.636581   1.391504
    22  C    6.164877   5.328492   4.675106   3.872955   2.411521
    23  C    6.420252   5.883246   5.363446   4.284419   2.787329
    24  C    5.670947   5.455650   5.013118   3.728654   2.449358
    25  C    4.417498   4.268228   3.755551   2.397801   1.407416
    26  H    4.730102   4.645735   3.374654   2.216898   2.910361
    27  H    4.892549   4.249576   2.745595   2.169340   2.691221
    28  H    4.833402   4.535700   3.238690   3.373307   4.609642
    29  H    3.793694   4.053527   3.096014   2.908226   4.330667
    30  H    3.496949   3.741119   3.410886   4.189943   5.688946
    31  H    2.859295   2.680906   2.877898   4.155423   5.481632
    32  H    3.518244   4.582010   4.594319   4.811991   6.244514
    33  H    3.971389   5.465128   5.955173   5.931154   7.077089
    34  H    3.867594   5.245365   5.359593   4.923697   5.993310
    35  H    3.127392   4.277577   5.069866   4.671758   5.016273
    36  H    4.136448   5.269774   5.226222   4.264739   4.866401
    37  H    4.774259   5.932636   6.213608   5.294532   5.549724
    38  H    2.919010   3.598371   3.114512   2.188909   3.249344
    39  H    2.129501   2.534532   3.185105   2.856525   3.052599
    40  H    1.096581   2.179520   3.455136   4.049164   4.920944
    41  H    2.179212   1.095241   2.165134   2.901444   3.243216
    42  H    2.199531   1.094704   2.159653   3.540668   4.401001
    43  H    3.456792   2.161331   1.098713   2.165437   2.778802
    44  H    5.224847   4.062693   3.143226   2.930078   2.157883
    45  H    7.034109   6.051439   5.398619   4.780675   3.395665
    46  H    7.430030   6.904169   6.435507   5.368843   3.873473
    47  H    6.228093   6.224502   5.887692   4.550006   3.427013
                   21         22         23         24         25
    21  C    0.000000
    22  C    1.402220   0.000000
    23  C    2.427434   1.398149   0.000000
    24  C    2.832049   2.440311   1.400799   0.000000
    25  C    2.420104   2.775888   2.392529   1.395893   0.000000
    26  H    3.820445   4.810367   5.044668   4.413065   3.304075
    27  H    3.031648   4.215186   4.927796   4.749433   3.726187
    28  H    5.231924   6.527953   7.178585   6.758778   5.513493
    29  H    5.355289   6.601460   6.956659   6.220073   4.877634
    30  H    6.567513   7.931899   8.470598   7.829281   6.439492
    31  H    6.176755   7.534496   8.194791   7.707598   6.376217
    32  H    7.435082   8.650825   8.829355   7.867664   6.510156
    33  H    8.385550   9.392544   9.264002   8.108588   6.921875
    34  H    7.363456   8.300701   8.075330   6.857319   5.694533
    35  H    6.183369   6.779677   6.380563   5.267652   4.467448
    36  H    6.246923   6.916381   6.426291   5.099405   4.154299
    37  H    6.839476   7.267496   6.553249   5.193615   4.580827
    38  H    4.602283   5.599954   5.554962   4.513830   3.192469
    39  H    4.095687   4.842568   4.767981   3.929768   2.938886
    40  H    5.877475   6.910343   7.116440   6.369187   5.217666
    41  H    3.742221   4.768694   5.293760   4.980701   3.981837
    42  H    4.893115   6.115087   6.800071   6.480951   5.323447
    43  H    2.937845   4.305801   5.242423   5.183927   4.094649
    44  H    1.086766   2.161893   3.411545   3.918748   3.411111
    45  H    2.158620   1.085815   2.156746   3.419505   3.861673
    46  H    3.409004   2.153549   1.086167   2.148599   3.377852
    47  H    3.913875   3.428465   2.176301   1.081923   2.156158
                   26         27         28         29         30
    26  H    0.000000
    27  H    1.767293   0.000000
    28  H    2.742992   2.419456   0.000000
    29  H    2.418187   3.056908   1.769695   0.000000
    30  H    4.627324   4.646146   2.882752   2.381526   0.000000
    31  H    5.335771   4.958645   3.829562   3.576957   1.754837
    32  H    5.058324   5.799245   4.365014   2.920037   2.331324
    33  H    6.468695   7.459691   6.560539   4.909466   4.620402
    34  H    5.079366   6.330647   5.692789   3.929062   4.520874
    35  H    6.025976   6.788931   7.215020   5.786316   6.188554
    36  H    4.382573   5.797510   5.980967   4.340704   5.656455
    37  H    5.812166   7.081718   7.547776   5.958650   7.036194
    38  H    2.489085   3.633738   3.816797   2.353893   3.921635
    39  H    4.712974   5.018738   5.852912   4.827671   5.353571
    40  H    5.813172   5.965722   5.842943   4.787047   4.145804
    41  H    5.101184   4.647350   5.380357   4.934157   4.832358
    42  H    5.453977   4.859562   4.829389   4.566153   3.685864
    43  H    3.819749   2.680377   3.542321   3.877968   4.138657
    44  H    4.121037   2.883547   4.963198   5.399175   6.366218
    45  H    5.671641   4.852565   7.189470   7.456222   8.695130
    46  H    6.023790   5.925886   8.217770   8.010663   9.555802
    47  H    5.046970   5.641360   7.533933   6.824450   8.500264
                   31         32         33         34         35
    31  H    0.000000
    32  H    3.440828   0.000000
    33  H    5.151255   2.477925   0.000000
    34  H    5.318142   2.509490   1.754433   0.000000
    35  H    5.920856   5.117413   3.961265   3.687938   0.000000
    36  H    6.239229   4.224271   3.630921   2.115568   3.041138
    37  H    7.312374   5.557536   4.296474   3.304480   2.383112
    38  H    4.476785   3.431309   4.181713   2.861672   3.750683
    39  H    4.829070   5.149352   5.057163   4.508885   2.227371
    40  H    3.287327   3.950497   3.908543   4.221431   2.979974
    41  H    3.728106   5.538057   6.123902   5.863989   4.175042
    42  H    2.209253   4.848964   5.871413   5.906253   5.087112
    43  H    3.441560   5.604000   7.041634   6.449998   5.963558
    44  H    5.863703   7.558515   8.746505   7.833607   6.830608
    45  H    8.207613   9.581703  10.403323   9.348894   7.766763
    46  H    9.263544   9.868780  10.199557   8.994828   7.144130
    47  H    8.459877   8.270945   8.244132   6.947876   5.274985
                   36         37         38         39         40
    36  H    0.000000
    37  H    1.765894   0.000000
    38  H    2.306508   3.741046   0.000000
    39  H    3.719952   3.807278   3.031359   0.000000
    40  H    4.652300   4.983788   3.861366   2.514704   0.000000
    41  H    5.571425   5.961232   4.110093   2.214384   2.556431
    42  H    6.204000   6.877359   4.521129   3.526296   2.498404
    43  H    6.215190   7.146891   4.084484   3.911073   4.304686
    44  H    6.954509   7.664408   5.080775   4.652633   6.053895
    45  H    7.999954   8.333087   6.623543   5.783381   7.747148
    46  H    7.241753   7.209178   6.558431   5.674080   8.072998
    47  H    5.009274   4.846071   4.914638   4.366410   6.850568
                   41         42         43         44         45
    41  H    0.000000
    42  H    1.754818   0.000000
    43  H    2.472850   2.491011   0.000000
    44  H    3.771225   4.625418   2.437705   0.000000
    45  H    5.446490   6.722969   4.847062   2.486558   0.000000
    46  H    6.248628   7.804114   6.274018   4.304789   2.478485
    47  H    5.751398   7.280460   6.164294   5.000590   4.322901
                   46         47
    46  H    0.000000
    47  H    2.499654   0.000000
 Stoichiometry    C21H22N2O2
 Framework group  C1[X(C21H22N2O2)]
 Deg. of freedom   135
 Full point group                 C1      NOp   1
 Largest Abelian subgroup         C1      NOp   1
 Largest concise Abelian subgroup C1      NOp   1
                         Standard orientation:                         
 ---------------------------------------------------------------------
 Center     Atomic      Atomic             Coordinates (Angstroms)
 Number     Number       Type             X           Y           Z
 ---------------------------------------------------------------------
      1          6           0        0.451819   -1.884280    1.699687
      2          6           0       -0.997620   -2.384344    1.729694
      3          7           0       -1.345657   -2.672587    0.323372
      4          6           0       -2.707323   -2.234528   -0.055199
      5          6           0       -2.730325   -0.745276   -0.343470
      6          6           0       -3.434091    0.106589    0.415842
      7          6           0       -3.429788    1.614233    0.402699
      8          8           0       -2.730362    2.248307   -0.659371
      9          6           0       -1.304315    2.172184   -0.721734
     10          6           0       -0.585597    2.899368    0.451127
     11          6           0        0.897169    2.530893    0.528075
     12          8           0        1.799123    3.362058    0.518681
     13          7           0        1.115011    1.167137    0.587062
     14          6           0       -0.042779    0.265339    0.384519
     15          6           0       -0.741981    0.737255   -0.903444
     16          6           0       -1.725710   -0.322579   -1.421429
     17          6           0       -0.860775   -1.534737   -1.826503
     18          6           0       -0.260626   -2.151908   -0.561357
     19          6           0        0.566642   -1.168576    0.327253
     20          6           0        2.009308   -0.869567   -0.033220
     21          6           0        3.023984   -1.726452   -0.448507
     22          6           0        4.320718   -1.222365   -0.623432
     23          6           0        4.591568    0.125176   -0.367316
     24          6           0        3.585977    1.002625    0.058253
     25          6           0        2.298377    0.485877    0.211793
     26          1           0        0.696504   -1.226518    2.539586
     27          1           0        1.155285   -2.723779    1.720408
     28          1           0       -1.113045   -3.279461    2.352596
     29          1           0       -1.658810   -1.608625    2.147005
     30          1           0       -3.385311   -2.490376    0.763756
     31          1           0       -3.037476   -2.814339   -0.925478
     32          1           0       -4.089569   -0.308128    1.184334
     33          1           0       -4.459540    1.980352    0.309067
     34          1           0       -3.071432    1.977012    1.381997
     35          1           0       -1.092002    2.732364   -1.636643
     36          1           0       -1.057742    2.625288    1.402416
     37          1           0       -0.658154    3.982309    0.345436
     38          1           0       -0.722243    0.349384    1.236040
     39          1           0        0.054257    0.822676   -1.655703
     40          1           0       -2.258427    0.070510   -2.295605
     41          1           0       -0.061067   -1.219099   -2.505026
     42          1           0       -1.443668   -2.290352   -2.362841
     43          1           0        0.398659   -2.986321   -0.837523
     44          1           0        2.818874   -2.777398   -0.634255
     45          1           0        5.117084   -1.883031   -0.952545
     46          1           0        5.600324    0.505393   -0.499999
     47          1           0        3.784142    2.047803    0.255463
 ---------------------------------------------------------------------
 Rotational constants (GHZ):           0.3697377           0.2471871           0.1734697
 Standard basis: 6-311+G(2d,p) (5D, 7F)
 There are   857 symmetry adapted cartesian basis functions of A   symmetry.
 There are   807 symmetry adapted basis functions of A   symmetry.
   807 basis functions,  1226 primitive gaussians,   857 cartesian basis functions
    89 alpha electrons       89 beta electrons
       nuclear repulsion energy      2388.5973042092 Hartrees.
 NAtoms=   47 NActive=   47 NUniq=   47 SFac= 1.00D+00 NAtFMM=   60 NAOKFM=F Big=F
 Integral buffers will be    131072 words long.
 Raffenetti 2 integral format.
 Two-electron integral symmetry is turned on.
 ------------------------------------------------------------------------------
 Polarizable Continuum Model (PCM)
 =================================
 Model                : PCM.
 Atomic radii         : SMD-Coulomb.
 Polarization charges : Total charges.
 Charge compensation  : None.
 Solution method      : On-the-fly selection.
 Cavity type          : VdW (van der Waals Surface) (Alpha=1.000).
 Cavity algorithm     : GePol (No added spheres)
                        Default sphere list used, NSphG=   47.
                        Lebedev-Laikov grids with approx.  5.0 points / Ang**2.
                        Smoothing algorithm: York/Karplus (Gamma=1.0000).
                        Polarization charges: spherical gaussians, with
                                              point-specific exponents (IZeta= 3).
                        Self-potential: point-specific (ISelfS= 7).
                        Self-field    : sphere-specific E.n sum rule (ISelfD= 2).
 Solvent              : Chloroform, Eps=   4.711300 Eps(inf)=   2.090627
 ------------------------------------------------------------------------------
 ------------------------------------------------------------------------------
 Atomic radii for non-electrostatic terms: SMD-CDS.
 ------------------------------------------------------------------------------
 Nuclear repulsion after PCM non-electrostatic terms =     2388.5857460411 Hartrees.
 One-electron integrals computed using PRISM.
 NBasis=   807 RedAO= T EigKep=  1.56D-06  NBF=   807
 NBsUse=   802 1.00D-06 EigRej=  8.76D-07 NBFU=   802
 ExpMin= 4.38D-02 ExpMax= 8.59D+03 ExpMxC= 1.30D+03 IAcc=3 IRadAn=         5 AccDes= 0.00D+00
 Harris functional with IExCor=  402 and IRadAn=       5 diagonalized for initial guess.
 HarFok:  IExCor=  402 AccDes= 0.00D+00 IRadAn=         5 IDoV= 1 UseB2=F ITyADJ=14
 ICtDFT=  3500011 ScaDFX=  1.000000  1.000000  1.000000  1.000000
 FoFCou: FMM=F IPFlag=           0 FMFlag=      100000 FMFlg1=           0
         NFxFlg=           0 DoJE=T BraDBF=F KetDBF=T FulRan=T
         wScrn=  0.000000 ICntrl=       500 IOpCl=  0 I1Cent=   200000004 NGrid=           0
         NMat0=    1 NMatS0=      1 NMatT0=    0 NMatD0=    1 NMtDS0=    0 NMtDT0=    0
 Petite list used in FoFCou.
 Requested convergence on RMS density matrix=1.00D-08 within 128 cycles.
 Requested convergence on MAX density matrix=1.00D-06.
 Requested convergence on             energy=1.00D-06.
 No special actions if energy rises.
 Inv3:  Mode=1 IEnd=    26982003.
 Iteration    1 A*A^-1 deviation from unit magnitude is 7.44D-15 for   2970.
 Iteration    1 A*A^-1 deviation from orthogonality  is 2.16D-15 for   2986   2918.
 Iteration    1 A^-1*A deviation from unit magnitude is 7.33D-15 for   2970.
 Iteration    1 A^-1*A deviation from orthogonality  is 2.62D-15 for   1659   1538.
 Error on total polarization charges =  0.05750
 SCF Done:  E(RB3LYP) =  -1073.73022557     A.U. after   14 cycles
            NFock= 14  Conv=0.79D-08     -V/T= 2.0046
 SMD-CDS (non-electrostatic) energy       (kcal/mol) =      -7.25
 (included in total energy above)
 DoSCS=F DFT=T ScalE2(SS,OS)=  1.000000  1.000000
 Range of M.O.s used for correlation:     1   802
 NBasis=   807 NAE=    89 NBE=    89 NFC=     0 NFV=     0
 NROrb=    802 NOA=    89 NOB=    89 NVA=   713 NVB=   713

 **** Warning!!: The largest alpha MO coefficient is  0.10820035D+03

 NEqPCM:  Using equilibrium solvation (IEInf=0, Eps=   4.7113, EpsInf=   2.0906)
          Differentiating once with respect to magnetic field using GIAOs.
          Electric field/nuclear overlap derivatives assumed to be zero.
 FoFJK:  IHMeth= 1 ICntrl=    6127 DoSepK=F KAlg= 0 I1Cent=           0 FoldK=F
 IRaf=         1 NMat=       1 IRICut=       1 DoRegI=T DoRafI=F ISym2E= 0 IDoP0=0 IntGTp=1.
          There are     3 degrees of freedom in the 1st order CPHF.  IDoFFX=0 NUNeed=     3.
      3 vectors produced by pass  0 Test12= 2.12D-12 3.33D-08 XBig12= 3.77D+02 2.15D+00.
 AX will form     3 AO Fock derivatives at one time.
      3 vectors produced by pass  1 Test12= 2.12D-12 3.33D-08 XBig12= 1.03D+00 3.21D-01.
      3 vectors produced by pass  2 Test12= 2.12D-12 3.33D-08 XBig12= 3.70D-03 2.33D-02.
      3 vectors produced by pass  3 Test12= 2.12D-12 3.33D-08 XBig12= 1.05D-05 8.34D-04.
      3 vectors produced by pass  4 Test12= 2.12D-12 3.33D-08 XBig12= 3.55D-08 3.92D-05.
      3 vectors produced by pass  5 Test12= 2.12D-12 3.33D-08 XBig12= 1.28D-10 3.32D-06.
      3 vectors produced by pass  6 Test12= 2.12D-12 3.33D-08 XBig12= 4.32D-13 2.24D-07.
 InvSVY:  IOpt=1 It=  1 EMax= 7.11D-15
 Solved reduced A of dimension    21 with     3 vectors.
 Calculating GIAO nuclear magnetic shielding tensors.
 SCF GIAO Magnetic shielding tensor (ppm):
      1  C    Isotropic =   136.8403   Anisotropy =    46.7500
   XX=   136.6372   YX=    13.6556   ZX=    -5.1387
   XY=     4.1191   YY=   124.6275   ZY=   -21.7433
   XZ=   -12.0497   YZ=   -25.1550   ZZ=   149.2562
   Eigenvalues:   110.0382   132.4757   168.0070
      2  C    Isotropic =   129.7338   Anisotropy =    59.6167
   XX=   127.4887   YX=    20.8774   ZX=    13.5920
   XY=    12.4520   YY=    99.8521   ZY=     8.8782
   XZ=    14.7288   YZ=     6.6473   ZZ=   161.8607
   Eigenvalues:    92.0062   127.7170   169.4783
      3  N    Isotropic =   193.5694   Anisotropy =    60.2262
   XX=   223.6689   YX=    21.1312   ZX=    -6.8338
   XY=    35.1860   YY=   136.4639   ZY=   -17.7755
   XZ=     8.1138   YZ=   -16.8414   ZZ=   220.5755
   Eigenvalues:   125.2032   221.7849   233.7202
      4  C    Isotropic =   124.9928   Anisotropy =    29.8228
   XX=   139.0015   YX=    -5.4047   ZX=     7.4821
   XY=   -13.4818   YY=   121.3631   ZY=    -6.0812
   XZ=     5.0082   YZ=    -1.8873   ZZ=   114.6140
   Eigenvalues:   112.5712   117.5327   144.8747
      5  C    Isotropic =    37.0515   Anisotropy =   163.6304
   XX=    91.8855   YX=   -22.8929   ZX=    72.1533
   XY=   -22.3711   YY=   -34.6394   ZY=    38.5862
   XZ=    68.4946   YZ=    47.2221   ZZ=    53.9084
   Eigenvalues:   -68.3714    33.3874   146.1384
      6  C    Isotropic =    49.7201   Anisotropy =   115.0161
   XX=    75.9936   YX=   -44.4591   ZX=    55.7171
   XY=   -41.2246   YY=    16.9694   ZY=    46.0936
   XZ=    62.2869   YZ=    36.0126   ZZ=    56.1974
   Eigenvalues:   -47.7361    70.4989   126.3975
      7  C    Isotropic =   114.2565   Anisotropy =    60.3836
   XX=   106.6797   YX=     6.5835   ZX=   -27.4027
   XY=    13.1530   YY=   123.4661   ZY=   -25.2947
   XZ=   -26.5614   YZ=   -19.2012   ZZ=   112.6236
   Eigenvalues:    80.8081   107.4491   154.5122
      8  O    Isotropic =   267.3806   Anisotropy =    61.5634
   XX=   262.8359   YX=   -28.5274   ZX=    38.9609
   XY=    -6.4008   YY=   284.5878   ZY=   -13.8117
   XZ=    12.5989   YZ=   -18.2357   ZZ=   254.7181
   Eigenvalues:   232.6628   261.0562   308.4228
      9  C    Isotropic =   103.4774   Anisotropy =    56.0231
   XX=   138.5537   YX=    -3.2702   ZX=   -11.2647
   XY=    -0.6575   YY=    91.2824   ZY=    10.8626
   XZ=   -10.5584   YZ=     9.0033   ZZ=    80.5962
   Eigenvalues:    73.5472    96.0590   140.8261
     10  C    Isotropic =   144.4138   Anisotropy =    46.7840
   XX=   163.7577   YX=   -19.5216   ZX=     5.6678
   XY=   -14.7631   YY=   149.6822   ZY=     8.6217
   XZ=    11.3725   YZ=     1.1657   ZZ=   119.8016
   Eigenvalues:   115.9867   141.6516   175.6032
     11  C    Isotropic =     2.6107   Anisotropy =   114.4500
   XX=   -27.0263   YX=    36.6033   ZX=    -5.0600
   XY=    54.5919   YY=   -43.8534   ZY=     4.4081
   XZ=    -0.8616   YZ=     5.0653   ZZ=    78.7117
   Eigenvalues:   -81.9978    10.9191    78.9107
     12  O    Isotropic =   -96.8912   Anisotropy =   604.2652
   XX=  -236.9173   YX=   -68.2554   ZX=   -18.1266
   XY=  -111.5365   YY=  -358.3762   ZY=    31.9784
   XZ=   -31.7609   YZ=   -18.2501   ZZ=   304.6200
   Eigenvalues:  -406.1783  -190.4475   305.9523
     13  N    Isotropic =    76.7837   Anisotropy =    97.6353
   XX=     4.3480   YX=   -44.5877   ZX=     4.3712
   XY=   -97.4068   YY=   100.4390   ZY=     4.8465
   XZ=    -4.4381   YZ=    12.7833   ZZ=   125.5642
   Eigenvalues:   -33.4388   121.9161   141.8739
     14  C    Isotropic =   114.0902   Anisotropy =    39.5033
   XX=   119.3850   YX=    14.5122   ZX=     2.2109
   XY=     6.0155   YY=   134.3172   ZY=     4.0796
   XZ=    15.7260   YZ=     1.7204   ZZ=    88.5685
   Eigenvalues:    86.1482   115.6968   140.4258
     15  C    Isotropic =   126.5343   Anisotropy =    32.2918
   XX=   139.1687   YX=    18.9552   ZX=    -2.9912
   XY=     5.7922   YY=   130.7026   ZY=     4.6154
   XZ=    -7.1516   YZ=    14.0103   ZZ=   109.7316
   Eigenvalues:   103.6198   127.9209   148.0622
     16  C    Isotropic =   146.6844   Anisotropy =    10.4178
   XX=   147.7554   YX=     5.1699   ZX=    -2.4904
   XY=     3.1406   YY=   141.6057   ZY=    -1.3864
   XZ=    -4.1694   YZ=    -0.0791   ZZ=   150.6922
   Eigenvalues:   139.4414   146.9822   153.6296
     17  C    Isotropic =   151.6915   Anisotropy =    15.6861
   XX=   154.5481   YX=    -4.7912   ZX=   -11.8279
   XY=    -0.0291   YY=   160.9214   ZY=     2.1224
   XZ=    -2.7664   YZ=    -1.3848   ZZ=   139.6049
   Eigenvalues:   136.6193   156.3063   162.1489
     18  C    Isotropic =   116.1510   Anisotropy =    36.5374
   XX=   120.8811   YX=    18.9050   ZX=   -13.8180
   XY=    20.7189   YY=   107.7273   ZY=     6.4205
   XZ=   -13.6729   YZ=    -2.4312   ZZ=   119.8445
   Eigenvalues:    90.0462   117.8975   140.5092
     19  C    Isotropic =   122.9628   Anisotropy =    25.4863
   XX=   133.1455   YX=     7.4132   ZX=    -1.9348
   XY=    15.3593   YY=   116.9149   ZY=     2.1879
   XZ=    -7.2343   YZ=    -3.8337   ZZ=   118.8281
   Eigenvalues:   110.7925   118.1423   139.9537
     20  C    Isotropic =    39.9905   Anisotropy =   153.2649
   XX=   -18.9268   YX=   -24.2784   ZX=    35.3073
   XY=   -27.9420   YY=    10.0472   ZY=   -25.9183
   XZ=    27.7723   YZ=   -24.2974   ZZ=   128.8511
   Eigenvalues:   -35.7736    13.5780   142.1671
     21  C    Isotropic =    54.0452   Anisotropy =   180.5072
   XX=    40.8513   YX=   -25.1577   ZX=    26.0386
   XY=   -23.8073   YY=   -38.6356   ZY=   -42.7004
   XZ=    26.1719   YZ=   -36.0859   ZZ=   159.9200
   Eigenvalues:   -50.3774    38.1297   174.3834
     22  C    Isotropic =    53.8823   Anisotropy =   177.5227
   XX=    -1.3617   YX=    36.4755   ZX=    47.0970
   XY=    38.8560   YY=    12.3549   ZY=   -45.5181
   XZ=    50.6216   YZ=   -44.5931   ZZ=   150.6537
   Eigenvalues:   -54.2996    43.7157   172.2307
     23  C    Isotropic =    49.0123   Anisotropy =   184.3157
   XX=   -41.2148   YX=   -36.9398   ZX=    38.7131
   XY=   -38.4328   YY=    30.7754   ZY=   -25.1886
   XZ=    32.4163   YZ=   -29.7553   ZZ=   157.4764
   Eigenvalues:   -59.6989    34.8464   171.8894
     24  C    Isotropic =    61.8602   Anisotropy =   164.4376
   XX=    39.2562   YX=   -18.2996   ZX=    25.3500
   XY=   -19.6359   YY=   -13.4746   ZY=   -40.8784
   XZ=     6.9329   YZ=   -38.6481   ZZ=   159.7989
   Eigenvalues:   -25.7751    39.8704   171.4852
     25  C    Isotropic =    31.2482   Anisotropy =   131.1127
   XX=    -9.8531   YX=    38.4825   ZX=    34.2387
   XY=    47.9726   YY=     0.3442   ZY=   -34.3760
   XZ=    47.3947   YZ=   -24.9023   ZZ=   103.2536
   Eigenvalues:   -63.4217    38.5096   118.6567
     26  H    Isotropic =    29.8905   Anisotropy =     6.6406
   XX=    27.9019   YX=     0.9685   ZX=     3.1713
   XY=     1.7870   YY=    28.1552   ZY=     0.1241
   XZ=     0.8068   YZ=     0.4458   ZZ=    33.6145
   Eigenvalues:    26.3911    28.9629    34.3176
     27  H    Isotropic =    30.0470   Anisotropy =     8.9140
   XX=    31.6821   YX=    -3.3681   ZX=     1.5006
   XY=    -3.0360   YY=    30.8628   ZY=    -3.4576
   XZ=    -0.1066   YZ=    -5.0443   ZZ=    27.5961
   Eigenvalues:    24.4306    29.7207    35.9896
     28  H    Isotropic =    28.6812   Anisotropy =    11.0587
   XX=    25.1773   YX=     1.9602   ZX=    -0.2202
   XY=     1.9694   YY=    29.4423   ZY=    -4.3639
   XZ=    -1.0557   YZ=    -6.1258   ZZ=    31.4241
   Eigenvalues:    23.8990    26.0910    36.0537
     29  H    Isotropic =    28.9517   Anisotropy =     5.7091
   XX=    28.8723   YX=    -0.2639   ZX=    -1.6589
   XY=    -1.6098   YY=    26.8143   ZY=     0.4210
   XZ=    -2.7987   YZ=     1.1698   ZZ=    31.1687
   Eigenvalues:    26.4502    27.6472    32.7578
     30  H    Isotropic =    29.3183   Anisotropy =     8.4848
   XX=    33.8022   YX=     1.7801   ZX=    -2.0859
   XY=     2.2282   YY=    28.3118   ZY=    -1.5379
   XZ=    -1.3090   YZ=    -1.9577   ZZ=    25.8408
   Eigenvalues:    24.8895    28.0906    34.9748
     31  H    Isotropic =    27.9703   Anisotropy =     9.1684
   XX=    29.7369   YX=     3.7862   ZX=     3.8623
   XY=     2.2347   YY=    27.7813   ZY=     2.2603
   XZ=     2.5595   YZ=     2.7602   ZZ=    26.3926
   Eigenvalues:    24.2233    25.6050    34.0826
     32  H    Isotropic =    26.3574   Anisotropy =     4.8128
   XX=    27.7762   YX=    -1.2686   ZX=    -1.4100
   XY=    -1.6977   YY=    27.2306   ZY=     1.5610
   XZ=    -1.3009   YZ=     0.6424   ZZ=    24.0655
   Eigenvalues:    23.5107    25.9956    29.5660
     33  H    Isotropic =    27.3789   Anisotropy =     9.0565
   XX=    31.7062   YX=    -2.5412   ZX=    -2.7589
   XY=    -1.7048   YY=    26.7549   ZY=    -1.0210
   XZ=    -4.1833   YZ=    -1.0055   ZZ=    23.6758
   Eigenvalues:    21.7801    26.9401    33.4166
     34  H    Isotropic =    26.8829   Anisotropy =     5.8564
   XX=    25.8831   YX=     0.6568   ZX=    -4.3800
   XY=     0.0806   YY=    26.4540   ZY=     0.7739
   XZ=    -2.1780   YZ=     1.9277   ZZ=    28.3114
   Eigenvalues:    23.2302    26.6313    30.7871
     35  H    Isotropic =    27.3180   Anisotropy =     5.9613
   XX=    27.1198   YX=     1.5529   ZX=    -2.4814
   XY=    -0.4909   YY=    27.6547   ZY=    -3.2882
   XZ=     0.3683   YZ=    -3.8529   ZZ=    27.1793
   Eigenvalues:    23.7857    26.8760    31.2922
     36  H    Isotropic =    28.3291   Anisotropy =     4.1200
   XX=    28.4406   YX=     0.7548   ZX=    -1.7697
   XY=     0.0384   YY=    27.9469   ZY=     2.5415
   XZ=    -1.9302   YZ=     1.8172   ZZ=    28.5997
   Eigenvalues:    25.2864    28.6251    31.0758
     37  H    Isotropic =    29.4436   Anisotropy =     8.6676
   XX=    27.9673   YX=    -1.0714   ZX=     1.2485
   XY=     1.7310   YY=    35.1728   ZY=     0.7060
   XZ=     0.8136   YZ=     0.3641   ZZ=    25.1908
   Eigenvalues:    24.8339    28.2749    35.2220
     38  H    Isotropic =    27.7405   Anisotropy =     2.9516
   XX=    27.9214   YX=    -0.2434   ZX=    -0.8268
   XY=    -0.1868   YY=    29.6822   ZY=    -0.1376
   XZ=    -0.8767   YZ=    -0.1077   ZZ=    25.6179
   Eigenvalues:    25.3294    28.1839    29.7083
     39  H    Isotropic =    30.1554   Anisotropy =     2.3595
   XX=    30.2138   YX=    -0.6681   ZX=    -3.8622
   XY=    -0.0092   YY=    30.4905   ZY=    -1.1233
   XZ=     0.9705   YZ=    -1.1743   ZZ=    29.7619
   Eigenvalues:    28.0257    30.7121    31.7284
     40  H    Isotropic =    28.4491   Anisotropy =     8.6149
   XX=    26.8887   YX=    -2.7587   ZX=     3.2499
   XY=    -2.5223   YY=    27.3213   ZY=    -0.8752
   XZ=     4.2723   YZ=    -1.5496   ZZ=    31.1373
   Eigenvalues:    23.7565    27.3984    34.1924
     41  H    Isotropic =    30.3939   Anisotropy =     7.2737
   XX=    29.9283   YX=     0.4235   ZX=    -3.5522
   XY=    -0.4585   YY=    27.2386   ZY=     0.3899
   XZ=    -1.3028   YZ=     1.5500   ZZ=    34.0148
   Eigenvalues:    27.0528    28.8859    35.2431
     42  H    Isotropic =    29.4315   Anisotropy =    10.4741
   XX=    26.6771   YX=     1.7800   ZX=     1.9817
   XY=     2.1561   YY=    30.3108   ZY=     4.7170
   XZ=     2.4023   YZ=     4.6589   ZZ=    31.3067
   Eigenvalues:    25.7859    26.0944    36.4143
     43  H    Isotropic =    27.7640   Anisotropy =     9.2460
   XX=    29.7008   YX=    -3.2043   ZX=    -3.0189
   XY=    -2.8097   YY=    29.2694   ZY=     1.9424
   XZ=    -2.3758   YZ=     3.1345   ZZ=    24.3218
   Eigenvalues:    22.8936    26.4705    33.9280
     44  H    Isotropic =    24.2964   Anisotropy =    10.1060
   XX=    29.9455   YX=    -2.4298   ZX=    -2.3267
   XY=    -1.7310   YY=    22.4706   ZY=     0.9245
   XZ=    -2.0635   YZ=     1.2899   ZZ=    20.4732
   Eigenvalues:    19.8053    22.0502    31.0337
     45  H    Isotropic =    24.4261   Anisotropy =     4.9732
   XX=    26.8155   YX=     1.3433   ZX=    -0.8439
   XY=     1.5697   YY=    25.4003   ZY=     0.7215
   XZ=    -0.7537   YZ=     0.6927   ZZ=    21.0626
   Eigenvalues:    20.7681    24.7687    27.7416
     46  H    Isotropic =    24.2622   Anisotropy =     4.5661
   XX=    25.2904   YX=    -0.7744   ZX=    -0.9624
   XY=    -0.8527   YY=    26.2844   ZY=     1.4933
   XZ=    -1.5360   YZ=     1.3400   ZZ=    21.2117
   Eigenvalues:    20.6175    24.8628    27.3062
     47  H    Isotropic =    23.4174   Anisotropy =     9.2694
   XX=    29.2791   YX=    -0.6312   ZX=    -1.5010
   XY=    -1.5653   YY=    23.2993   ZY=     1.2888
   XZ=    -0.3785   YZ=     1.7855   ZZ=    17.6737
   Eigenvalues:    17.2464    23.4087    29.5970
 End of Minotr F.D. properties file   721 does not exist.
 End of Minotr F.D. properties file   722 does not exist.
 End of Minotr F.D. properties file   788 does not exist.

 **********************************************************************

            Population analysis using the SCF Density.

 **********************************************************************

 Orbital symmetries:
       Occupied  (A) (A) (A) (A) (A) (A) (A) (A) (A) (A) (A) (A)
                 (A) (A) (A) (A) (A) (A) (A) (A) (A) (A) (A) (A)
                 (A) (A) (A) (A) (A) (A) (A) (A) (A) (A) (A) (A)
                 (A) (A) (A) (A) (A) (A) (A) (A) (A) (A) (A) (A)
                 (A) (A) (A) (A) (A) (A) (A) (A) (A) (A) (A) (A)
                 (A) (A) (A) (A) (A) (A) (A) (A) (A) (A) (A) (A)
                 (A) (A) (A) (A) (A) (A) (A) (A) (A) (A) (A) (A)
                 (A) (A) (A) (A) (A)
       Virtual   (A) (A) (A) (A) (A) (A) (A) (A) (A) (A) (A) (A)
                 (A) (A) (A) (A) (A) (A) (A) (A) (A) (A) (A) (A)
                 (A) (A) (A) (A) (A) (A) (A) (A) (A) (A) (A) (A)
                 (A) (A) (A) (A) (A) (A) (A) (A) (A) (A) (A) (A)
                 (A) (A) (A) (A) (A) (A) (A) (A) (A) (A) (A) (A)
                 (A) (A) (A) (A) (A) (A) (A) (A) (A) (A) (A) (A)
                 (A) (A) (A) (A) (A) (A) (A) (A) (A) (A) (A) (A)
                 (A) (A) (A) (A) (A) (A) (A) (A) (A) (A) (A) (A)
                 (A) (A) (A) (A) (A) (A) (A) (A) (A) (A) (A) (A)
                 (A) (A) (A) (A) (A) (A) (A) (A) (A) (A) (A) (A)
                 (A) (A) (A) (A) (A) (A) (A) (A) (A) (A) (A) (A)
                 (A) (A) (A) (A) (A) (A) (A) (A) (A) (A) (A) (A)
                 (A) (A) (A) (A) (A) (A) (A) (A) (A) (A) (A) (A)
                 (A) (A) (A) (A) (A) (A) (A) (A) (A) (A) (A) (A)
                 (A) (A) (A) (A) (A) (A) (A) (A) (A) (A) (A) (A)
                 (A) (A) (A) (A) (A) (A) (A) (A) (A) (A) (A) (A)
                 (A) (A) (A) (A) (A) (A) (A) (A) (A) (A) (A) (A)
                 (A) (A) (A) (A) (A) (A) (A) (A) (A) (A) (A) (A)
                 (A) (A) (A) (A) (A) (A) (A) (A) (A) (A) (A) (A)
                 (A) (A) (A) (A) (A) (A) (A) (A) (A) (A) (A) (A)
                 (A) (A) (A) (A) (A) (A) (A) (A) (A) (A) (A) (A)
                 (A) (A) (A) (A) (A) (A) (A) (A) (A) (A) (A) (A)
                 (A) (A) (A) (A) (A) (A) (A) (A) (A) (A) (A) (A)
                 (A) (A) (A) (A) (A) (A) (A) (A) (A) (A) (A) (A)
                 (A) (A) (A) (A) (A) (A) (A) (A) (A) (A) (A) (A)
                 (A) (A) (A) (A) (A) (A) (A) (A) (A) (A) (A) (A)
                 (A) (A) (A) (A) (A) (A) (A) (A) (A) (A) (A) (A)
                 (A) (A) (A) (A) (A) (A) (A) (A) (A) (A) (A) (A)
                 (A) (A) (A) (A) (A) (A) (A) (A) (A) (A) (A) (A)
                 (A) (A) (A) (A) (A) (A) (A) (A) (A) (A) (A) (A)
                 (A) (A) (A) (A) (A) (A) (A) (A) (A) (A) (A) (A)
                 (A) (A) (A) (A) (A) (A) (A) (A) (A) (A) (A) (A)
                 (A) (A) (A) (A) (A) (A) (A) (A) (A) (A) (A) (A)
                 (A) (A) (A) (A) (A) (A) (A) (A) (A) (A) (A) (A)
                 (A) (A) (A) (A) (A) (A) (A) (A) (A) (A) (A) (A)
                 (A) (A) (A) (A) (A) (A) (A) (A) (A) (A) (A) (A)
                 (A) (A) (A) (A) (A) (A) (A) (A) (A) (A) (A) (A)
                 (A) (A) (A) (A) (A) (A) (A) (A) (A) (A) (A) (A)
                 (A) (A) (A) (A) (A) (A) (A) (A) (A) (A) (A) (A)
                 (A) (A) (A) (A) (A) (A) (A) (A) (A) (A) (A) (A)
                 (A) (A) (A) (A) (A) (A) (A) (A) (A) (A) (A) (A)
                 (A) (A) (A) (A) (A) (A) (A) (A) (A) (A) (A) (A)
                 (A) (A) (A) (A) (A) (A) (A) (A) (A) (A) (A) (A)
                 (A) (A) (A) (A) (A) (A) (A) (A) (A) (A) (A) (A)
                 (A) (A) (A) (A) (A) (A) (A) (A) (A) (A) (A) (A)
                 (A) (A) (A) (A) (A) (A) (A) (A) (A) (A) (A) (A)
                 (A) (A) (A) (A) (A) (A) (A) (A) (A) (A) (A) (A)
                 (A) (A) (A) (A) (A) (A) (A) (A) (A) (A) (A) (A)
                 (A) (A) (A) (A) (A) (A) (A) (A) (A) (A) (A) (A)
                 (A) (A) (A) (A) (A) (A) (A) (A) (A) (A) (A) (A)
                 (A) (A) (A) (A) (A) (A) (A) (A) (A) (A) (A) (A)
                 (A) (A) (A) (A) (A) (A) (A) (A) (A) (A) (A) (A)
                 (A) (A) (A) (A) (A) (A) (A) (A) (A) (A) (A) (A)
                 (A) (A) (A) (A) (A) (A) (A) (A) (A) (A) (A) (A)
                 (A) (A) (A) (A) (A) (A) (A) (A) (A) (A) (A) (A)
                 (A) (A) (A) (A) (A) (A) (A) (A) (A) (A) (A) (A)
                 (A) (A) (A) (A) (A) (A) (A) (A) (A) (A) (A) (A)
                 (A) (A) (A) (A) (A) (A) (A) (A) (A) (A) (A) (A)
                 (A) (A) (A) (A) (A) (A) (A) (A) (A) (A) (A) (A)
                 (A) (A) (A) (A) (A)
 The electronic state is 1-A.
 Alpha  occ. eigenvalues --  -19.12988 -19.10003 -14.35548 -14.30111 -10.28111
 Alpha  occ. eigenvalues --  -10.23077 -10.22087 -10.21689 -10.21371 -10.20083
 Alpha  occ. eigenvalues --  -10.19484 -10.19147 -10.18733 -10.18232 -10.17958
 Alpha  occ. eigenvalues --  -10.17870 -10.17781 -10.17679 -10.17453 -10.17445
 Alpha  occ. eigenvalues --  -10.17270 -10.17153 -10.16766 -10.16647 -10.16564
 Alpha  occ. eigenvalues --   -1.04827  -1.03716  -0.97065  -0.93238  -0.85821
 Alpha  occ. eigenvalues --   -0.83237  -0.81851  -0.80247  -0.77034  -0.74968
 Alpha  occ. eigenvalues --   -0.74786  -0.73321  -0.71536  -0.70055  -0.66948
 Alpha  occ. eigenvalues --   -0.64566  -0.63016  -0.62347  -0.60694  -0.58043
 Alpha  occ. eigenvalues --   -0.57133  -0.55470  -0.54680  -0.51880  -0.51323
 Alpha  occ. eigenvalues --   -0.50842  -0.49702  -0.48686  -0.47250  -0.46997
 Alpha  occ. eigenvalues --   -0.46738  -0.46198  -0.45174  -0.44851  -0.44153
 Alpha  occ. eigenvalues --   -0.43704  -0.43256  -0.42583  -0.41237  -0.41015
 Alpha  occ. eigenvalues --   -0.39763  -0.39152  -0.39084  -0.38896  -0.38012
 Alpha  occ. eigenvalues --   -0.37874  -0.37136  -0.36565  -0.36117  -0.35494
 Alpha  occ. eigenvalues --   -0.34768  -0.34037  -0.33398  -0.33147  -0.32619
 Alpha  occ. eigenvalues --   -0.31679  -0.30663  -0.29715  -0.27047  -0.26017
 Alpha  occ. eigenvalues --   -0.25400  -0.24453  -0.21992  -0.20807
 Alpha virt. eigenvalues --   -0.02484  -0.01826  -0.00274   0.00423   0.01112
 Alpha virt. eigenvalues --    0.01140   0.01269   0.02416   0.02685   0.02995
 Alpha virt. eigenvalues --    0.03131   0.03498   0.03844   0.04556   0.04816
 Alpha virt. eigenvalues --    0.05305   0.05730   0.06059   0.06165   0.06387
 Alpha virt. eigenvalues --    0.06876   0.07456   0.07827   0.08581   0.08872
 Alpha virt. eigenvalues --    0.09114   0.09208   0.09445   0.09662   0.10322
 Alpha virt. eigenvalues --    0.10494   0.11143   0.11795   0.12170   0.12308
 Alpha virt. eigenvalues --    0.12479   0.12803   0.12982   0.13354   0.13489
 Alpha virt. eigenvalues --    0.13930   0.14130   0.14570   0.14738   0.14969
 Alpha virt. eigenvalues --    0.15397   0.15765   0.15948   0.16261   0.16282
 Alpha virt. eigenvalues --    0.16883   0.16986   0.17194   0.17577   0.17637
 Alpha virt. eigenvalues --    0.17855   0.18042   0.18486   0.18550   0.18888
 Alpha virt. eigenvalues --    0.19153   0.19257   0.19467   0.19817   0.19967
 Alpha virt. eigenvalues --    0.20059   0.20195   0.20306   0.20452   0.20783
 Alpha virt. eigenvalues --    0.21103   0.21171   0.21301   0.21471   0.21803
 Alpha virt. eigenvalues --    0.22308   0.22459   0.22540   0.22617   0.23278
 Alpha virt. eigenvalues --    0.23365   0.23383   0.23557   0.23807   0.24366
 Alpha virt. eigenvalues --    0.24499   0.24825   0.25074   0.25290   0.25508
 Alpha virt. eigenvalues --    0.25783   0.26042   0.26438   0.26709   0.26952
 Alpha virt. eigenvalues --    0.27246   0.27463   0.27734   0.27860   0.28036
 Alpha virt. eigenvalues --    0.28301   0.28494   0.28716   0.28928   0.29480
 Alpha virt. eigenvalues --    0.29577   0.30044   0.30290   0.30662   0.30774
 Alpha virt. eigenvalues --    0.31043   0.31537   0.31775   0.32197   0.32590
 Alpha virt. eigenvalues --    0.32927   0.33214   0.33389   0.33729   0.34040
 Alpha virt. eigenvalues --    0.34201   0.34721   0.34987   0.35607   0.35698
 Alpha virt. eigenvalues --    0.36370   0.36487   0.36985   0.37185   0.37751
 Alpha virt. eigenvalues --    0.38580   0.38869   0.38962   0.39820   0.40099
 Alpha virt. eigenvalues --    0.40479   0.40597   0.41230   0.41841   0.42146
 Alpha virt. eigenvalues --    0.42602   0.43043   0.43455   0.43626   0.44308
 Alpha virt. eigenvalues --    0.44814   0.45283   0.45852   0.46984   0.48342
 Alpha virt. eigenvalues --    0.48562   0.48850   0.50281   0.50949   0.51185
 Alpha virt. eigenvalues --    0.51928   0.52115   0.52614   0.52894   0.53443
 Alpha virt. eigenvalues --    0.53536   0.54017   0.54672   0.55172   0.55899
 Alpha virt. eigenvalues --    0.56236   0.56620   0.57083   0.57535   0.57861
 Alpha virt. eigenvalues --    0.58108   0.59139   0.59375   0.59892   0.60381
 Alpha virt. eigenvalues --    0.60826   0.61211   0.61497   0.62010   0.62764
 Alpha virt. eigenvalues --    0.62935   0.63219   0.63676   0.64024   0.64249
 Alpha virt. eigenvalues --    0.64447   0.65061   0.65656   0.65956   0.66184
 Alpha virt. eigenvalues --    0.66411   0.66642   0.66962   0.67467   0.67908
 Alpha virt. eigenvalues --    0.68410   0.68530   0.68799   0.68956   0.69008
 Alpha virt. eigenvalues --    0.69713   0.70094   0.70704   0.70767   0.71345
 Alpha virt. eigenvalues --    0.71414   0.71761   0.72181   0.72815   0.72908
 Alpha virt. eigenvalues --    0.73577   0.73779   0.74409   0.74557   0.74905
 Alpha virt. eigenvalues --    0.75434   0.76007   0.76449   0.76761   0.77094
 Alpha virt. eigenvalues --    0.77298   0.77672   0.78216   0.78680   0.78966
 Alpha virt. eigenvalues --    0.79298   0.80145   0.80438   0.81058   0.81161
 Alpha virt. eigenvalues --    0.81618   0.82499   0.82802   0.83075   0.84037
 Alpha virt. eigenvalues --    0.84540   0.85156   0.85476   0.86152   0.86447
 Alpha virt. eigenvalues --    0.87442   0.87785   0.88262   0.88912   0.89679
 Alpha virt. eigenvalues --    0.90131   0.90250   0.90772   0.91491   0.91853
 Alpha virt. eigenvalues --    0.94070   0.94207   0.95556   0.96629   0.97566
 Alpha virt. eigenvalues --    0.98155   0.98925   0.99189   0.99376   1.00633
 Alpha virt. eigenvalues --    1.01247   1.01788   1.03308   1.03919   1.04471
 Alpha virt. eigenvalues --    1.04833   1.06033   1.06667   1.07350   1.07593
 Alpha virt. eigenvalues --    1.08825   1.09832   1.10389   1.10993   1.11659
 Alpha virt. eigenvalues --    1.12178   1.13141   1.13965   1.14858   1.15589
 Alpha virt. eigenvalues --    1.15906   1.16478   1.16825   1.17473   1.18969
 Alpha virt. eigenvalues --    1.19184   1.19511   1.20146   1.20574   1.21096
 Alpha virt. eigenvalues --    1.21987   1.22390   1.22898   1.23292   1.23745
 Alpha virt. eigenvalues --    1.24776   1.26098   1.27206   1.27620   1.28242
 Alpha virt. eigenvalues --    1.29291   1.29634   1.30019   1.30498   1.30831
 Alpha virt. eigenvalues --    1.31730   1.32115   1.32400   1.33146   1.33852
 Alpha virt. eigenvalues --    1.34285   1.34637   1.35128   1.35480   1.36176
 Alpha virt. eigenvalues --    1.36451   1.36866   1.37187   1.37955   1.38722
 Alpha virt. eigenvalues --    1.39268   1.39604   1.40329   1.40659   1.41499
 Alpha virt. eigenvalues --    1.42128   1.42499   1.43048   1.44048   1.44801
 Alpha virt. eigenvalues --    1.45474   1.46076   1.46179   1.46446   1.46673
 Alpha virt. eigenvalues --    1.48610   1.48731   1.49625   1.50264   1.51291
 Alpha virt. eigenvalues --    1.51678   1.51785   1.52189   1.53184   1.53673
 Alpha virt. eigenvalues --    1.54902   1.55188   1.55741   1.56173   1.57105
 Alpha virt. eigenvalues --    1.57330   1.58976   1.59211   1.59626   1.60419
 Alpha virt. eigenvalues --    1.61300   1.62652   1.63108   1.63815   1.65297
 Alpha virt. eigenvalues --    1.66609   1.66975   1.67525   1.68012   1.69316
 Alpha virt. eigenvalues --    1.70474   1.70940   1.71958   1.72171   1.73871
 Alpha virt. eigenvalues --    1.74220   1.76480   1.76797   1.78028   1.78447
 Alpha virt. eigenvalues --    1.79265   1.79911   1.80593   1.81627   1.82957
 Alpha virt. eigenvalues --    1.83404   1.84870   1.85636   1.86657   1.87911
 Alpha virt. eigenvalues --    1.89130   1.89592   1.90013   1.90319   1.90763
 Alpha virt. eigenvalues --    1.93106   1.93802   1.94271   1.94584   1.95674
 Alpha virt. eigenvalues --    1.95904   1.97812   1.98056   1.99520   2.00104
 Alpha virt. eigenvalues --    2.00833   2.02577   2.03896   2.04849   2.06322
 Alpha virt. eigenvalues --    2.06847   2.08668   2.10807   2.11975   2.12456
 Alpha virt. eigenvalues --    2.12897   2.15509   2.17181   2.19591   2.20031
 Alpha virt. eigenvalues --    2.20990   2.21735   2.23315   2.23874   2.24673
 Alpha virt. eigenvalues --    2.25354   2.26032   2.26838   2.27277   2.28467
 Alpha virt. eigenvalues --    2.29946   2.30656   2.31593   2.32418   2.33877
 Alpha virt. eigenvalues --    2.34882   2.35490   2.36804   2.36949   2.37876
 Alpha virt. eigenvalues --    2.38621   2.39657   2.40722   2.42882   2.43719
 Alpha virt. eigenvalues --    2.44763   2.45561   2.47069   2.47875   2.48843
 Alpha virt. eigenvalues --    2.49456   2.51584   2.52815   2.54656   2.55897
 Alpha virt. eigenvalues --    2.56487   2.58230   2.60165   2.62422   2.62969
 Alpha virt. eigenvalues --    2.64638   2.65115   2.66516   2.67391   2.68594
 Alpha virt. eigenvalues --    2.68843   2.69069   2.71024   2.72224   2.72936
 Alpha virt. eigenvalues --    2.75255   2.77220   2.79446   2.82727   2.82845
 Alpha virt. eigenvalues --    2.84743   2.85806   2.87048   2.87376   2.87940
 Alpha virt. eigenvalues --    2.88473   2.89841   2.90209   2.91087   2.91781
 Alpha virt. eigenvalues --    2.93529   2.94231   2.94811   2.96342   2.96871
 Alpha virt. eigenvalues --    2.98574   2.99402   3.00838   3.01729   3.02526
 Alpha virt. eigenvalues --    3.03938   3.05189   3.05495   3.06573   3.07581
 Alpha virt. eigenvalues --    3.08780   3.10973   3.11630   3.12186   3.13683
 Alpha virt. eigenvalues --    3.14515   3.15595   3.17137   3.17750   3.19023
 Alpha virt. eigenvalues --    3.19644   3.22202   3.24188   3.24358   3.25721
 Alpha virt. eigenvalues --    3.25987   3.26893   3.28795   3.29633   3.30467
 Alpha virt. eigenvalues --    3.32007   3.32875   3.33806   3.34894   3.35693
 Alpha virt. eigenvalues --    3.36181   3.37385   3.38225   3.39107   3.39407
 Alpha virt. eigenvalues --    3.40490   3.41461   3.42198   3.42987   3.43732
 Alpha virt. eigenvalues --    3.43811   3.44569   3.45234   3.46376   3.47330
 Alpha virt. eigenvalues --    3.48194   3.50388   3.51067   3.51466   3.52036
 Alpha virt. eigenvalues --    3.52298   3.52938   3.53340   3.53996   3.54993
 Alpha virt. eigenvalues --    3.55657   3.56317   3.56848   3.57302   3.57634
 Alpha virt. eigenvalues --    3.58625   3.59170   3.60107   3.60341   3.60893
 Alpha virt. eigenvalues --    3.61824   3.62288   3.62918   3.62985   3.63870
 Alpha virt. eigenvalues --    3.64178   3.64587   3.65467   3.66253   3.66811
 Alpha virt. eigenvalues --    3.67340   3.67812   3.69013   3.69175   3.69411
 Alpha virt. eigenvalues --    3.70478   3.70885   3.71848   3.72380   3.73643
 Alpha virt. eigenvalues --    3.73760   3.75123   3.76036   3.77034   3.77550
 Alpha virt. eigenvalues --    3.78027   3.79530   3.79812   3.80294   3.80905
 Alpha virt. eigenvalues --    3.81870   3.82256   3.83180   3.83929   3.85228
 Alpha virt. eigenvalues --    3.85661   3.86592   3.86800   3.87831   3.88527
 Alpha virt. eigenvalues --    3.88946   3.90719   3.91308   3.92214   3.92982
 Alpha virt. eigenvalues --    3.93992   3.94488   3.95254   3.96154   3.97127
 Alpha virt. eigenvalues --    3.97734   3.99067   3.99359   4.00419   4.01613
 Alpha virt. eigenvalues --    4.03030   4.04228   4.05822   4.06441   4.07013
 Alpha virt. eigenvalues --    4.09413   4.10072   4.12558   4.13885   4.15500
 Alpha virt. eigenvalues --    4.17060   4.17989   4.18770   4.21607   4.22201
 Alpha virt. eigenvalues --    4.23714   4.24875   4.26112   4.28201   4.28976
 Alpha virt. eigenvalues --    4.30334   4.30817   4.34216   4.35826   4.35998
 Alpha virt. eigenvalues --    4.36997   4.37760   4.39504   4.40208   4.43672
 Alpha virt. eigenvalues --    4.44730   4.46695   4.47366   4.49770   4.50360
 Alpha virt. eigenvalues --    4.52115   4.52857   4.55097   4.56297   4.60568
 Alpha virt. eigenvalues --    4.63050   4.63591   4.70350   4.73093   4.79629
 Alpha virt. eigenvalues --    4.91071   4.93619   5.00676   5.08016   5.13574
 Alpha virt. eigenvalues --    5.17648   5.20547   5.24263   5.27653   5.28702
 Alpha virt. eigenvalues --    5.31106   5.35116   5.39822   5.43325   5.47135
 Alpha virt. eigenvalues --    5.48036   5.52095   5.54310   5.61550   5.71679
 Alpha virt. eigenvalues --    5.79137   5.82075   6.12852   6.85069   6.91481
 Alpha virt. eigenvalues --    7.04678   7.08996   7.09561   7.15194   7.28970
 Alpha virt. eigenvalues --    7.30905   7.46940   7.57424  23.71826  23.83600
 Alpha virt. eigenvalues --   23.92723  23.95184  23.97005  23.97916  24.00616
 Alpha virt. eigenvalues --   24.01982  24.04145  24.04925  24.05438  24.09160
 Alpha virt. eigenvalues --   24.11030  24.13522  24.14470  24.17053  24.23059
 Alpha virt. eigenvalues --   24.26592  24.29019  24.30880  24.32677  35.74041
 Alpha virt. eigenvalues --   35.79715  50.03701  50.08593
          Condensed to atoms (all electrons):
               1          2          3          4          5          6
     1  C    9.513947  -1.463514   0.126632   0.070161   0.092510  -0.066566
     2  C   -1.463514   6.277287   0.360110  -0.177436  -0.036150   0.099478
     3  N    0.126632   0.360110   6.782346   0.249517  -0.035594   0.064008
     4  C    0.070161  -0.177436   0.249517   7.692408  -0.605477  -0.393994
     5  C    0.092510  -0.036150  -0.035594  -0.605477   9.541110  -2.929220
     6  C   -0.066566   0.099478   0.064008  -0.393994  -2.929220   9.399184
     7  C    0.001393   0.010564   0.000168  -0.142873   0.210691  -0.253003
     8  O    0.002652   0.000879   0.003232   0.001231  -0.139912   0.050254
     9  C   -0.220529   0.020641  -0.080694  -0.163094   0.891828  -1.051755
    10  C    0.045549   0.012844   0.031548   0.045409  -0.382687   0.449149
    11  C    0.020834  -0.002410  -0.000550   0.010426  -0.041218   0.028885
    12  O   -0.005241  -0.000393   0.000010   0.000035   0.001603  -0.002138
    13  N    0.117382  -0.040276   0.028737   0.003584   0.000653  -0.040458
    14  C    0.083024  -0.041897   0.013613   0.219653   0.038743  -0.284594
    15  C    0.274519   0.023780   0.085740   0.211585  -0.731178   0.658998
    16  C   -0.001092  -0.014891   0.140977   0.014755  -0.398614  -0.071526
    17  C    0.044281  -0.019160   0.027871  -0.531626  -0.351754   0.376984
    18  C    0.013069  -0.119562   0.076548  -0.459190   0.489712  -0.084160
    19  C   -2.284182   0.516355  -0.374981  -0.240639  -0.020305  -0.221751
    20  C   -0.724823   0.223372  -0.039318  -0.059725  -0.005582  -0.070744
    21  C   -0.071718  -0.075762  -0.035660   0.030112   0.001033  -0.029096
    22  C   -0.002873   0.018084   0.012367   0.006612   0.008555  -0.005121
    23  C   -0.016637  -0.009594  -0.007933   0.001611  -0.007750   0.000878
    24  C    0.083105  -0.040757  -0.006113   0.005836  -0.008294   0.014158
    25  C   -0.027955  -0.106273  -0.038464   0.071607  -0.120364  -0.013653
    26  H    0.523474  -0.052866   0.012532   0.000296  -0.006579   0.006590
    27  H    0.364979  -0.040297  -0.001689   0.002114  -0.004812   0.000746
    28  H    0.011455   0.421219  -0.072500   0.030883  -0.004757  -0.003845
    29  H   -0.115257   0.430542  -0.029757  -0.043936  -0.013018   0.030005
    30  H    0.002175  -0.004973  -0.059569   0.460102  -0.042059  -0.063037
    31  H   -0.012936   0.020187  -0.058447   0.473870  -0.092006   0.052031
    32  H    0.003139  -0.004052   0.003368  -0.011657  -0.026284   0.394238
    33  H   -0.000577   0.000706   0.000056  -0.001369  -0.055130   0.011446
    34  H    0.004315  -0.000765   0.000876   0.003003  -0.061752  -0.054575
    35  H   -0.000589   0.000419   0.000117   0.000841   0.022845  -0.006555
    36  H   -0.001946   0.000815   0.000196   0.002007   0.013208  -0.000320
    37  H   -0.000139  -0.000089  -0.000027  -0.000106  -0.006105   0.005615
    38  H    0.000133  -0.018881  -0.001088   0.000835  -0.022770   0.035077
    39  H   -0.011914   0.000676  -0.003275   0.000645   0.018279  -0.006673
    40  H    0.001582   0.000624   0.006158   0.005351  -0.111230   0.016185
    41  H    0.001376  -0.005129   0.003218   0.036947  -0.006914  -0.016556
    42  H    0.002740   0.004401   0.004880  -0.084084   0.054481   0.033911
    43  H   -0.031377   0.037170  -0.060985   0.043644  -0.000888  -0.002875
    44  H   -0.017228   0.002853  -0.000504  -0.000528  -0.000105  -0.000007
    45  H    0.000501  -0.000166  -0.000007   0.000002   0.000001  -0.000002
    46  H    0.000109  -0.000001   0.000001  -0.000002  -0.000005   0.000000
    47  H   -0.000489   0.000041   0.000000  -0.000014   0.000039   0.000001
               7          8          9         10         11         12
     1  C    0.001393   0.002652  -0.220529   0.045549   0.020834  -0.005241
     2  C    0.010564   0.000879   0.020641   0.012844  -0.002410  -0.000393
     3  N    0.000168   0.003232  -0.080694   0.031548  -0.000550   0.000010
     4  C   -0.142873   0.001231  -0.163094   0.045409   0.010426   0.000035
     5  C    0.210691  -0.139912   0.891828  -0.382687  -0.041218   0.001603
     6  C   -0.253003   0.050254  -1.051755   0.449149   0.028885  -0.002138
     7  C    5.786782   0.151584   0.312081  -0.222274  -0.063941   0.001007
     8  O    0.151584   8.153478   0.314730  -0.159326   0.068480  -0.000907
     9  C    0.312081   0.314730   9.900631  -2.062034  -0.283227  -0.044638
    10  C   -0.222274  -0.159326  -2.062034   8.103287  -1.130791   0.094241
    11  C   -0.063941   0.068480  -0.283227  -1.130791   6.808298   0.325434
    12  O    0.001007  -0.000907  -0.044638   0.094241   0.325434   8.267154
    13  N   -0.015195   0.000536   0.026854  -0.088636   0.512715   0.069430
    14  C   -0.018343   0.018684   0.877782  -0.445387  -0.314808  -0.009686
    15  C   -0.308243   0.057970  -2.831460   1.194297   0.375294   0.018936
    16  C   -0.057775  -0.034532  -0.835517   0.451336  -0.278158  -0.002073
    17  C   -0.045629   0.033968   0.001353   0.042426  -0.104791  -0.000666
    18  C    0.026829   0.004253  -0.069116  -0.002086   0.033618   0.003959
    19  C    0.023025  -0.009023   0.634833  -0.171436  -0.201329  -0.003716
    20  C    0.025649  -0.011252   0.387371  -0.143176  -0.194012  -0.032947
    21  C    0.005829  -0.002630   0.116326   0.023299  -0.035643   0.004709
    22  C    0.001447  -0.000109  -0.000909   0.016449   0.021730   0.001128
    23  C   -0.002052  -0.000245   0.029651  -0.090637  -0.028539   0.009534
    24  C    0.001007  -0.004305   0.082298  -0.041450  -0.048464   0.118405
    25  C   -0.031109   0.000071  -0.079831  -0.149657   0.157119  -0.270630
    26  H   -0.000767  -0.000002  -0.002422   0.003057  -0.000245   0.000100
    27  H   -0.000120  -0.000002   0.000957  -0.000651  -0.000061   0.000000
    28  H   -0.000341   0.000005  -0.000860   0.000211  -0.000118   0.000001
    29  H   -0.001442   0.000119   0.004801  -0.000461   0.002436  -0.000005
    30  H   -0.003170   0.000106   0.001610   0.000017  -0.000306   0.000000
    31  H   -0.000286   0.000016  -0.001572   0.000387   0.000223  -0.000000
    32  H   -0.043635   0.004844  -0.003004   0.001044  -0.000852   0.000001
    33  H    0.404352  -0.051143  -0.021407   0.019966   0.007831  -0.000010
    34  H    0.476830  -0.047704  -0.026431   0.020336  -0.023235   0.000207
    35  H    0.013463  -0.079001   0.525018  -0.059804  -0.004631   0.001354
    36  H    0.001155  -0.014441  -0.036804   0.475411  -0.112562   0.002290
    37  H   -0.004075   0.004427  -0.022615   0.504331  -0.114992  -0.003741
    38  H   -0.003310  -0.000969   0.018310  -0.028286   0.008618   0.000085
    39  H   -0.000747   0.002741  -0.050945  -0.010641   0.022459  -0.001385
    40  H   -0.012309   0.004519  -0.046280   0.007473   0.002520   0.000000
    41  H   -0.001108  -0.000040   0.009504  -0.001620   0.001702  -0.000000
    42  H    0.001064   0.000027   0.003458  -0.000060  -0.000018   0.000001
    43  H   -0.000038  -0.000008  -0.003208   0.001073   0.000120  -0.000003
    44  H   -0.000004   0.000000   0.000274   0.000124  -0.000293  -0.000003
    45  H    0.000000   0.000000  -0.000011  -0.000027  -0.000048   0.000007
    46  H   -0.000000   0.000000  -0.000012   0.000143   0.000750  -0.000051
    47  H    0.000015  -0.000003   0.002068   0.001178   0.004556  -0.003852
              13         14         15         16         17         18
     1  C    0.117382   0.083024   0.274519  -0.001092   0.044281   0.013069
     2  C   -0.040276  -0.041897   0.023780  -0.014891  -0.019160  -0.119562
     3  N    0.028737   0.013613   0.085740   0.140977   0.027871   0.076548
     4  C    0.003584   0.219653   0.211585   0.014755  -0.531626  -0.459190
     5  C    0.000653   0.038743  -0.731178  -0.398614  -0.351754   0.489712
     6  C   -0.040458  -0.284594   0.658998  -0.071526   0.376984  -0.084160
     7  C   -0.015195  -0.018343  -0.308243  -0.057775  -0.045629   0.026829
     8  O    0.000536   0.018684   0.057970  -0.034532   0.033968   0.004253
     9  C    0.026854   0.877782  -2.831460  -0.835517   0.001353  -0.069116
    10  C   -0.088636  -0.445387   1.194297   0.451336   0.042426  -0.002086
    11  C    0.512715  -0.314808   0.375294  -0.278158  -0.104791   0.033618
    12  O    0.069430  -0.009686   0.018936  -0.002073  -0.000666   0.003959
    13  N    7.021332  -0.078059   0.267616   0.106511  -0.086764  -0.070370
    14  C   -0.078059   7.897766  -1.100982  -0.451593  -0.195311  -0.096087
    15  C    0.267616  -1.100982  10.611898  -0.118367  -0.853305   0.740845
    16  C    0.106511  -0.451593  -0.118367   7.882906   0.175508  -0.909359
    17  C   -0.086764  -0.195311  -0.853305   0.175508   7.011938   0.006596
    18  C   -0.070370  -0.096087   0.740845  -0.909359   0.006596   7.297974
    19  C   -0.231194   0.633590  -1.707761  -0.046003   0.035839  -0.564231
    20  C   -0.228269   0.193286  -0.988602  -0.001236   0.203581  -0.265101
    21  C   -0.073154  -0.453339  -0.330311   0.074148   0.115734  -0.180741
    22  C   -0.027992  -0.030962   0.006162  -0.000336   0.036813  -0.009140
    23  C    0.015370  -0.032180  -0.032095   0.000841  -0.018688  -0.024441
    24  C    0.038229  -0.510707   0.193775   0.078576  -0.007901   0.045499
    25  C    0.074744  -0.311227  -0.147110   0.169612  -0.074996  -0.286773
    26  H    0.010358   0.008114   0.004657   0.001986   0.004343  -0.005594
    27  H   -0.000077   0.044908   0.009157   0.008653  -0.013495  -0.050402
    28  H    0.000934   0.001531  -0.000201  -0.004035  -0.004556   0.006476
    29  H   -0.000442   0.004389   0.006440   0.020506  -0.007017  -0.026910
    30  H   -0.000020  -0.003662  -0.001756   0.011569   0.014907   0.019845
    31  H   -0.000025   0.004889   0.006542  -0.052350  -0.017289   0.020788
    32  H   -0.000348  -0.005405   0.003464  -0.000956  -0.000191   0.004919
    33  H   -0.000065  -0.004154   0.023744  -0.013957  -0.002111   0.002206
    34  H   -0.000821  -0.002355  -0.003888   0.024888   0.002508  -0.006036
    35  H   -0.009449   0.033763  -0.075412  -0.033254  -0.005311   0.002166
    36  H   -0.026570   0.057258  -0.004326  -0.009457  -0.000944   0.001569
    37  H    0.004714  -0.014631   0.005595   0.005872   0.000921  -0.001095
    38  H   -0.043786   0.394675  -0.083137  -0.002573   0.019395   0.001893
    39  H    0.006012  -0.002580   0.446933  -0.041597  -0.040046   0.021675
    40  H   -0.000513   0.006603   0.030288   0.452227  -0.019179  -0.010079
    41  H   -0.001091   0.004375  -0.011902  -0.039710   0.420734  -0.054124
    42  H    0.001088  -0.004125   0.007848  -0.107302   0.481399  -0.041201
    43  H    0.003562   0.023634   0.007585   0.016893  -0.091236   0.459220
    44  H    0.000001  -0.002325  -0.001702   0.001635  -0.000213  -0.015881
    45  H    0.000441   0.000515   0.000124   0.000018   0.000255   0.000383
    46  H   -0.000439  -0.000787  -0.000313   0.000010  -0.000019  -0.000254
    47  H    0.000390   0.006257  -0.002065  -0.000265   0.000137   0.000364
              19         20         21         22         23         24
     1  C   -2.284182  -0.724823  -0.071718  -0.002873  -0.016637   0.083105
     2  C    0.516355   0.223372  -0.075762   0.018084  -0.009594  -0.040757
     3  N   -0.374981  -0.039318  -0.035660   0.012367  -0.007933  -0.006113
     4  C   -0.240639  -0.059725   0.030112   0.006612   0.001611   0.005836
     5  C   -0.020305  -0.005582   0.001033   0.008555  -0.007750  -0.008294
     6  C   -0.221751  -0.070744  -0.029096  -0.005121   0.000878   0.014158
     7  C    0.023025   0.025649   0.005829   0.001447  -0.002052   0.001007
     8  O   -0.009023  -0.011252  -0.002630  -0.000109  -0.000245  -0.004305
     9  C    0.634833   0.387371   0.116326  -0.000909   0.029651   0.082298
    10  C   -0.171436  -0.143176   0.023299   0.016449  -0.090637  -0.041450
    11  C   -0.201329  -0.194012  -0.035643   0.021730  -0.028539  -0.048464
    12  O   -0.003716  -0.032947   0.004709   0.001128   0.009534   0.118405
    13  N   -0.231194  -0.228269  -0.073154  -0.027992   0.015370   0.038229
    14  C    0.633590   0.193286  -0.453339  -0.030962  -0.032180  -0.510707
    15  C   -1.707761  -0.988602  -0.330311   0.006162  -0.032095   0.193775
    16  C   -0.046003  -0.001236   0.074148  -0.000336   0.000841   0.078576
    17  C    0.035839   0.203581   0.115734   0.036813  -0.018688  -0.007901
    18  C   -0.564231  -0.265101  -0.180741  -0.009140  -0.024441   0.045499
    19  C   11.426984   1.499287  -1.129786   0.047784  -0.322480  -0.814614
    20  C    1.499287   7.635550  -0.753546  -0.780911   0.023479  -0.996916
    21  C   -1.129786  -0.753546   7.075133   0.418759   0.201535   0.700122
    22  C    0.047784  -0.780911   0.418759   6.086072   0.092414   0.008617
    23  C   -0.322480   0.023479   0.201535   0.092414   6.435280   0.624609
    24  C   -0.814614  -0.996916   0.700122   0.008617   0.624609   6.511142
    25  C   -0.571233   0.552916   0.487451   0.106740  -0.897157  -0.044426
    26  H   -0.129829  -0.015038   0.002629   0.001568  -0.002034   0.001094
    27  H   -0.015430  -0.015747   0.016164  -0.009253   0.006427   0.005698
    28  H   -0.044778  -0.006745  -0.002672  -0.000369  -0.000078   0.000150
    29  H    0.083511   0.003485   0.001842  -0.000177   0.000276   0.000455
    30  H   -0.003095   0.000887  -0.000486  -0.000012  -0.000011  -0.000064
    31  H   -0.028653  -0.002220   0.000556   0.000063   0.000004   0.000049
    32  H    0.000388  -0.000262   0.000023   0.000015  -0.000009  -0.000077
    33  H   -0.003441  -0.000709  -0.000032  -0.000002   0.000004   0.000031
    34  H   -0.002327   0.001454  -0.000025   0.000000  -0.000027  -0.000146
    35  H    0.001976   0.001235  -0.000371   0.000160  -0.000630  -0.001391
    36  H    0.010144   0.002248   0.000991   0.000086  -0.000440  -0.000235
    37  H   -0.000085   0.000220   0.000049  -0.000015   0.000645   0.002918
[...]
    47  H    0.007742  -0.005732   0.000415   0.024164  -0.042955   0.385894
              25         26         27         28         29         30
     1  C   -0.027955   0.523474   0.364979   0.011455  -0.115257   0.002175
     2  C   -0.106273  -0.052866  -0.040297   0.421219   0.430542  -0.004973
     3  N   -0.038464   0.012532  -0.001689  -0.072500  -0.029757  -0.059569
     4  C    0.071607   0.000296   0.002114   0.030883  -0.043936   0.460102
     5  C   -0.120364  -0.006579  -0.004812  -0.004757  -0.013018  -0.042059
     6  C   -0.013653   0.006590   0.000746  -0.003845   0.030005  -0.063037
     7  C   -0.031109  -0.000767  -0.000120  -0.000341  -0.001442  -0.003170
     8  O    0.000071  -0.000002  -0.000002   0.000005   0.000119   0.000106
     9  C   -0.079831  -0.002422   0.000957  -0.000860   0.004801   0.001610
    10  C   -0.149657   0.003057  -0.000651   0.000211  -0.000461   0.000017
    11  C    0.157119  -0.000245  -0.000061  -0.000118   0.002436  -0.000306
    12  O   -0.270630   0.000100   0.000000   0.000001  -0.000005   0.000000
    13  N    0.074744   0.010358  -0.000077   0.000934  -0.000442  -0.000020
    14  C   -0.311227   0.008114   0.044908   0.001531   0.004389  -0.003662
    15  C   -0.147110   0.004657   0.009157  -0.000201   0.006440  -0.001756
    16  C    0.169612   0.001986   0.008653  -0.004035   0.020506   0.011569
    17  C   -0.074996   0.004343  -0.013495  -0.004556  -0.007017   0.014907
    18  C   -0.286773  -0.005594  -0.050402   0.006476  -0.026910   0.019845
    19  C   -0.571233  -0.129829  -0.015430  -0.044778   0.083511  -0.003095
    20  C    0.552916  -0.015038  -0.015747  -0.006745   0.003485   0.000887
    21  C    0.487451   0.002629   0.016164  -0.002672   0.001842  -0.000486
    22  C    0.106740   0.001568  -0.009253  -0.000369  -0.000177  -0.000012
    23  C   -0.897157  -0.002034   0.006427  -0.000078   0.000276  -0.000011
    24  C   -0.044426   0.001094   0.005698   0.000150   0.000455  -0.000064
    25  C    7.218945  -0.007307   0.033359   0.000001   0.005886  -0.000977
    26  H   -0.007307   0.547165  -0.033066   0.003276  -0.007702  -0.000039
    27  H    0.033359  -0.033066   0.562446  -0.010603   0.006903  -0.000036
    28  H    0.000001   0.003276  -0.010603   0.612651  -0.056637   0.001730
    29  H    0.005886  -0.007702   0.006903  -0.056637   0.587038  -0.002708
    30  H   -0.000977  -0.000039  -0.000036   0.001730  -0.002708   0.557313
    31  H    0.000469   0.000026   0.000061   0.000537  -0.000333  -0.035910
    32  H   -0.001218  -0.000005  -0.000001   0.000197  -0.001200   0.005998
    33  H    0.000335   0.000001  -0.000000  -0.000000   0.000024  -0.000014
    34  H   -0.000922  -0.000001  -0.000000   0.000004  -0.000141   0.000071
    35  H   -0.011779  -0.000001  -0.000001   0.000000   0.000001  -0.000001
    36  H   -0.015765   0.000026   0.000002  -0.000000   0.000074  -0.000001
    37  H   -0.006217  -0.000000  -0.000000  -0.000000  -0.000002  -0.000000
    38  H    0.015854   0.003411   0.000436  -0.000175   0.000005   0.000107
    39  H   -0.001078   0.000024   0.000016   0.000005  -0.000046   0.000028
    40  H   -0.001983  -0.000002  -0.000004   0.000002   0.000045  -0.000343
    41  H   -0.002214  -0.000016   0.000067   0.000025   0.000029  -0.000099
    42  H   -0.004156   0.000024   0.000018  -0.000041   0.000047   0.000658
    43  H    0.003443   0.000623  -0.000540   0.002460  -0.001899  -0.000225
    44  H    0.008214   0.000030   0.000395   0.000037  -0.000004  -0.000000
    45  H    0.007475  -0.000000   0.000026   0.000000   0.000000  -0.000000
    46  H   -0.016631   0.000001  -0.000000  -0.000000   0.000000   0.000000
    47  H   -0.031620  -0.000000   0.000000  -0.000000   0.000000  -0.000000
              31         32         33         34         35         36
     1  C   -0.012936   0.003139  -0.000577   0.004315  -0.000589  -0.001946
     2  C    0.020187  -0.004052   0.000706  -0.000765   0.000419   0.000815
     3  N   -0.058447   0.003368   0.000056   0.000876   0.000117   0.000196
     4  C    0.473870  -0.011657  -0.001369   0.003003   0.000841   0.002007
     5  C   -0.092006  -0.026284  -0.055130  -0.061752   0.022845   0.013208
     6  C    0.052031   0.394238   0.011446  -0.054575  -0.006555  -0.000320
     7  C   -0.000286  -0.043635   0.404352   0.476830   0.013463   0.001155
     8  O    0.000016   0.004844  -0.051143  -0.047704  -0.079001  -0.014441
     9  C   -0.001572  -0.003004  -0.021407  -0.026431   0.525018  -0.036804
    10  C    0.000387   0.001044   0.019966   0.020336  -0.059804   0.475411
    11  C    0.000223  -0.000852   0.007831  -0.023235  -0.004631  -0.112562
    12  O   -0.000000   0.000001  -0.000010   0.000207   0.001354   0.002290
    13  N   -0.000025  -0.000348  -0.000065  -0.000821  -0.009449  -0.026570
    14  C    0.004889  -0.005405  -0.004154  -0.002355   0.033763   0.057258
    15  C    0.006542   0.003464   0.023744  -0.003888  -0.075412  -0.004326
    16  C   -0.052350  -0.000956  -0.013957   0.024888  -0.033254  -0.009457
    17  C   -0.017289  -0.000191  -0.002111   0.002508  -0.005311  -0.000944
    18  C    0.020788   0.004919   0.002206  -0.006036   0.002166   0.001569
    19  C   -0.028653   0.000388  -0.003441  -0.002327   0.001976   0.010144
    20  C   -0.002220  -0.000262  -0.000709   0.001454   0.001235   0.002248
    21  C    0.000556   0.000023  -0.000032  -0.000025  -0.000371   0.000991
    22  C    0.000063   0.000015  -0.000002   0.000000   0.000160   0.000086
    23  C    0.000004  -0.000009   0.000004  -0.000027  -0.000630  -0.000440
    24  C    0.000049  -0.000077   0.000031  -0.000146  -0.001391  -0.000235
    25  C    0.000469  -0.001218   0.000335  -0.000922  -0.011779  -0.015765
    26  H    0.000026  -0.000005   0.000001  -0.000001  -0.000001   0.000026
    27  H    0.000061  -0.000001  -0.000000  -0.000000  -0.000001   0.000002
    28  H    0.000537   0.000197  -0.000000   0.000004   0.000000  -0.000000
    29  H   -0.000333  -0.001200   0.000024  -0.000141   0.000001   0.000074
    30  H   -0.035910   0.005998  -0.000014   0.000071  -0.000001  -0.000001
    31  H    0.587987   0.000781   0.000089  -0.000033   0.000003   0.000001
    32  H    0.000781   0.574076  -0.001021   0.000203   0.000031   0.000065
    33  H    0.000089  -0.001021   0.576524  -0.039005  -0.000128  -0.000227
    34  H   -0.000033   0.000203  -0.039005   0.591168  -0.000245   0.004681
    35  H    0.000003   0.000031  -0.000128  -0.000245   0.574996   0.005487
    36  H    0.000001   0.000065  -0.000227   0.004681   0.005487   0.524931
    37  H    0.000000  -0.000005  -0.000026   0.000170  -0.010283  -0.034934
    38  H   -0.000037  -0.000021   0.000104   0.001069  -0.000603  -0.003795
    39  H    0.000022   0.000051   0.000011  -0.000060  -0.014505  -0.000700
    40  H    0.001023  -0.000348   0.000673  -0.000541   0.002529   0.000025
    41  H    0.000706   0.000029  -0.000001  -0.000001   0.000107   0.000002
    42  H   -0.005310  -0.000009  -0.000002   0.000004   0.000007  -0.000001
    43  H    0.001318   0.000014  -0.000000   0.000003  -0.000000   0.000002
    44  H    0.000000   0.000000  -0.000000   0.000000   0.000000  -0.000000
    45  H   -0.000000  -0.000000   0.000000  -0.000000  -0.000000   0.000000
    46  H    0.000000   0.000000  -0.000000   0.000000   0.000000   0.000000
    47  H   -0.000000  -0.000000  -0.000000   0.000000  -0.000009  -0.000011
              37         38         39         40         41         42
     1  C   -0.000139   0.000133  -0.011914   0.001582   0.001376   0.002740
     2  C   -0.000089  -0.018881   0.000676   0.000624  -0.005129   0.004401
     3  N   -0.000027  -0.001088  -0.003275   0.006158   0.003218   0.004880
     4  C   -0.000106   0.000835   0.000645   0.005351   0.036947  -0.084084
     5  C   -0.006105  -0.022770   0.018279  -0.111230  -0.006914   0.054481
     6  C    0.005615   0.035077  -0.006673   0.016185  -0.016556   0.033911
     7  C   -0.004075  -0.003310  -0.000747  -0.012309  -0.001108   0.001064
     8  O    0.004427  -0.000969   0.002741   0.004519  -0.000040   0.000027
     9  C   -0.022615   0.018310  -0.050945  -0.046280   0.009504   0.003458
    10  C    0.504331  -0.028286  -0.010641   0.007473  -0.001620  -0.000060
    11  C   -0.114992   0.008618   0.022459   0.002520   0.001702  -0.000018
    12  O   -0.003741   0.000085  -0.001385   0.000000  -0.000000   0.000001
    13  N    0.004714  -0.043786   0.006012  -0.000513  -0.001091   0.001088
    14  C   -0.014631   0.394675  -0.002580   0.006603   0.004375  -0.004125
    15  C    0.005595  -0.083137   0.446933   0.030288  -0.011902   0.007848
    16  C    0.005872  -0.002573  -0.041597   0.452227  -0.039710  -0.107302
    17  C    0.000921   0.019395  -0.040046  -0.019179   0.420734   0.481399
    18  C   -0.001095   0.001893   0.021675  -0.010079  -0.054124  -0.041201
    19  C   -0.000085   0.025108   0.001291  -0.017399   0.001188  -0.005686
    20  C    0.000220   0.017113  -0.004080  -0.005493   0.005998  -0.001985
    21  C    0.000049   0.008357  -0.007809  -0.001741   0.005399   0.001090
    22  C   -0.000015   0.001499   0.000858  -0.000092  -0.000173   0.001102
    23  C    0.000645  -0.000957   0.001774  -0.000020   0.000445  -0.000167
    24  C    0.002918   0.002507  -0.005517  -0.000622   0.000477  -0.000445
    25  C   -0.006217   0.015854  -0.001078  -0.001983  -0.002214  -0.004156
    26  H   -0.000000   0.003411   0.000024  -0.000002  -0.000016   0.000024
    27  H   -0.000000   0.000436   0.000016  -0.000004   0.000067   0.000018
    28  H   -0.000000  -0.000175   0.000005   0.000002   0.000025  -0.000041
    29  H   -0.000002   0.000005  -0.000046   0.000045   0.000029   0.000047
    30  H   -0.000000   0.000107   0.000028  -0.000343  -0.000099   0.000658
    31  H    0.000000  -0.000037   0.000022   0.001023   0.000706  -0.005310
    32  H   -0.000005  -0.000021   0.000051  -0.000348   0.000029  -0.000009
    33  H   -0.000026   0.000104   0.000011   0.000673  -0.000001  -0.000002
    34  H    0.000170   0.001069  -0.000060  -0.000541  -0.000001   0.000004
    35  H   -0.010283  -0.000603  -0.014505   0.002529   0.000107   0.000007
    36  H   -0.034934  -0.003795  -0.000700   0.000025   0.000002  -0.000001
    37  H    0.522905   0.000597   0.000322  -0.000018  -0.000001  -0.000001
    38  H    0.000597   0.521286   0.006037  -0.000304  -0.000404   0.000206
    39  H    0.000322   0.006037   0.566611  -0.007272   0.001612   0.000783
    40  H   -0.000018  -0.000304  -0.007272   0.590545  -0.004198  -0.008000
    41  H   -0.000001  -0.000404   0.001612  -0.004198   0.553491  -0.038417
    42  H   -0.000001   0.000206   0.000783  -0.008000  -0.038417   0.567017
    43  H   -0.000000  -0.000092  -0.000121  -0.000393  -0.002114  -0.005441
    44  H    0.000000  -0.000008   0.000003   0.000000   0.000051   0.000015
    45  H   -0.000000  -0.000001  -0.000001   0.000000  -0.000000  -0.000000
    46  H   -0.000000  -0.000000   0.000001  -0.000000   0.000000  -0.000000
    47  H    0.000042   0.000010   0.000039   0.000000  -0.000001   0.000000
              43         44         45         46         47
     1  C   -0.031377  -0.017228   0.000501   0.000109  -0.000489
     2  C    0.037170   0.002853  -0.000166  -0.000001   0.000041
     3  N   -0.060985  -0.000504  -0.000007   0.000001   0.000000
     4  C    0.043644  -0.000528   0.000002  -0.000002  -0.000014
     5  C   -0.000888  -0.000105   0.000001  -0.000005   0.000039
     6  C   -0.002875  -0.000007  -0.000002   0.000000   0.000001
     7  C   -0.000038  -0.000004   0.000000  -0.000000   0.000015
     8  O   -0.000008   0.000000   0.000000   0.000000  -0.000003
     9  C   -0.003208   0.000274  -0.000011  -0.000012   0.002068
    10  C    0.001073   0.000124  -0.000027   0.000143   0.001178
    11  C    0.000120  -0.000293  -0.000048   0.000750   0.004556
    12  O   -0.000003  -0.000003   0.000007  -0.000051  -0.003852
    13  N    0.003562   0.000001   0.000441  -0.000439   0.000390
    14  C    0.023634  -0.002325   0.000515  -0.000787   0.006257
    15  C    0.007585  -0.001702   0.000124  -0.000313  -0.002065
    16  C    0.016893   0.001635   0.000018   0.000010  -0.000265
    17  C   -0.091236  -0.000213   0.000255  -0.000019   0.000137
    18  C    0.459220  -0.015881   0.000383  -0.000254   0.000364
    19  C   -0.065873   0.012837   0.004692  -0.001498   0.007742
    20  C   -0.034840  -0.006543   0.001724   0.004707  -0.005732
    21  C   -0.026479   0.403836  -0.035732   0.013060   0.000415
    22  C   -0.005424  -0.056709   0.427192  -0.064532   0.024164
    23  C   -0.001353   0.009877  -0.065329   0.441814  -0.042955
    24  C    0.001149   0.000007   0.002224  -0.034030   0.385894
    25  C    0.003443   0.008214   0.007475  -0.016631  -0.031620
    26  H    0.000623   0.000030  -0.000000   0.000001  -0.000000
    27  H   -0.000540   0.000395   0.000026  -0.000000   0.000000
    28  H    0.002460   0.000037   0.000000  -0.000000  -0.000000
    29  H   -0.001899  -0.000004   0.000000   0.000000   0.000000
    30  H   -0.000225  -0.000000  -0.000000   0.000000  -0.000000
    31  H    0.001318   0.000000  -0.000000   0.000000  -0.000000
    32  H    0.000014   0.000000  -0.000000   0.000000  -0.000000
    33  H   -0.000000  -0.000000   0.000000  -0.000000  -0.000000
    34  H    0.000003   0.000000  -0.000000   0.000000   0.000000
    35  H   -0.000000   0.000000  -0.000000   0.000000  -0.000009
    36  H    0.000002  -0.000000   0.000000   0.000000  -0.000011
    37  H   -0.000000   0.000000  -0.000000  -0.000000   0.000042
    38  H   -0.000092  -0.000008  -0.000001  -0.000000   0.000010
    39  H   -0.000121   0.000003  -0.000001   0.000001   0.000039
    40  H   -0.000393   0.000000   0.000000  -0.000000   0.000000
    41  H   -0.002114   0.000051  -0.000000   0.000000  -0.000001
    42  H   -0.005441   0.000015  -0.000000  -0.000000   0.000000
    43  H    0.628288   0.003691   0.000012  -0.000000  -0.000000
    44  H    0.003691   0.538920  -0.004889  -0.000398   0.000093
    45  H    0.000012  -0.004889   0.553172  -0.005133  -0.000332
    46  H   -0.000000  -0.000398  -0.005133   0.553958  -0.004737
    47  H   -0.000000   0.000093  -0.000332  -0.004737   0.508830
 Mulliken charges:
               1
     1  C   -0.327452
     2  C   -0.207754
     3  N   -0.127672
     4  C   -0.779334
     5  C    0.883222
     6  C   -0.055602
     7  C   -0.223148
     8  O   -0.323253
     9  C   -0.224004
    10  C   -0.353460
    11  C    0.571195
    12  O   -0.537547
    13  N   -0.247181
    14  C   -0.151865
    15  C    0.060326
    16  C   -0.112899
    17  C   -0.565298
    18  C    0.071529
    19  C    0.266184
    20  C    0.611992
    21  C   -0.461870
    22  C   -0.351330
    23  C   -0.292032
    24  C   -0.341556
    25  C    0.358483
    26  H    0.128110
    27  H    0.132756
    28  H    0.119521
    29  H    0.120231
    30  H    0.145448
    31  H    0.134780
    32  H    0.103672
    33  H    0.146429
    34  H    0.139245
    35  H    0.127429
    36  H    0.160806
    37  H    0.159859
    38  H    0.128467
    39  H    0.112084
    40  H    0.119992
    41  H    0.138348
    42  H    0.140179
    43  H    0.101507
    44  H    0.124452
    45  H    0.112913
    46  H    0.114292
    47  H    0.149809
 Sum of Mulliken charges =  -0.00000
 Mulliken charges with hydrogens summed into heavy atoms:
               1
     1  C   -0.066587
     2  C    0.031998
     3  N   -0.127672
     4  C   -0.499106
     5  C    0.883222
     6  C    0.048070
     7  C    0.062525
     8  O   -0.323253
     9  C   -0.096575
    10  C   -0.032795
    11  C    0.571195
    12  O   -0.537547
    13  N   -0.247181
    14  C   -0.023398
    15  C    0.172410
    16  C    0.007093
    17  C   -0.286771
    18  C    0.173036
    19  C    0.266184
    20  C    0.611992
    21  C   -0.337418
    22  C   -0.238417
    23  C   -0.177740
    24  C   -0.191747
    25  C    0.358483
 Electronic spatial extent (au):  <R**2>=           6557.8623
 Charge=             -0.0000 electrons
 Dipole moment (field-independent basis, Debye):
    X=             -3.0133    Y=             -3.7545    Z=              0.4211  Tot=              4.8326
 Quadrupole moment (field-independent basis, Debye-Ang):
   XX=           -148.4888   YY=           -163.5508   ZZ=           -143.8924
   XY=            -10.2121   XZ=             -8.7363   YZ=              1.2364
 Traceless Quadrupole moment (field-independent basis, Debye-Ang):
   XX=              3.4885   YY=            -11.5735   ZZ=              8.0850
   XY=            -10.2121   XZ=             -8.7363   YZ=              1.2364
 Octapole moment (field-independent basis, Debye-Ang**2):
  XXX=             -0.7998  YYY=            -34.4680  ZZZ=              2.2130  XYY=            -20.9719
  XXY=            -25.1695  XXZ=              8.2254  XZZ=            -21.5985  YZZ=              0.2739
  YYZ=             -6.7189  XYZ=            -12.3510
 Hexadecapole moment (field-independent basis, Debye-Ang**3):
 XXXX=          -4731.4046 YYYY=          -3407.6210 ZZZZ=           -884.4496 XXXY=            -10.5420
 XXXZ=           -151.5387 YYYX=           -185.7044 YYYZ=            -15.0971 ZZZX=             20.3501
 ZZZY=             -7.1991 XXYY=          -1410.5706 XXZZ=          -1022.1223 YYZZ=           -647.3541
 XXYZ=             44.4841 YYXZ=            -49.8080 ZZXY=              7.2178
 N-N= 2.388585746041D+03 E-N=-7.274774340102D+03  KE= 1.068800316856D+03
 Unable to Open any file for archive entry.
 1\1\GINC-NODE11\SP\RB3LYP\6-311+G(2d,p)\C21H22N2O2\SVSS\06-Sep-2022\0\
 \# B3LYP/6-311+G(2d,p) scrf=(solvent=chloroform,smd) nmr=giao\\Strychn
 ine_rdkit_conf_2_SP\\0,1\C,0,0.451819,-1.88428,1.699687\C,0,-0.99762,-
 2.384344,1.729694\N,0,-1.345657,-2.672587,0.323372\C,0,-2.707323,-2.23
 4528,-0.055199\C,0,-2.730325,-0.745276,-0.34347\C,0,-3.434091,0.106589
 ,0.415842\C,0,-3.429788,1.614233,0.402699\O,0,-2.730362,2.248307,-0.65
 9371\C,0,-1.304315,2.172184,-0.721734\C,0,-0.585597,2.899368,0.451127\
 C,0,0.897169,2.530893,0.528075\O,0,1.799123,3.362058,0.518681\N,0,1.11
 5011,1.167137,0.587062\C,0,-0.042779,0.265339,0.384519\C,0,-0.741981,0
 .737255,-0.903444\C,0,-1.72571,-0.322579,-1.421429\C,0,-0.860775,-1.53
 4737,-1.826503\C,0,-0.260626,-2.151908,-0.561357\C,0,0.566642,-1.16857
 6,0.327253\C,0,2.009308,-0.869567,-0.03322\C,0,3.023984,-1.726452,-0.4
 48507\C,0,4.320718,-1.222365,-0.623432\C,0,4.591568,0.125176,-0.367316
 \C,0,3.585977,1.002625,0.058253\C,0,2.298377,0.485877,0.211793\H,0,0.6
 96504,-1.226518,2.539586\H,0,1.155285,-2.723779,1.720408\H,0,-1.113045
 ,-3.279461,2.352596\H,0,-1.65881,-1.608625,2.147005\H,0,-3.385311,-2.4
 90376,0.763756\H,0,-3.037476,-2.814339,-0.925478\H,0,-4.089569,-0.3081
 28,1.184334\H,0,-4.45954,1.980352,0.309067\H,0,-3.071432,1.977012,1.38
 1997\H,0,-1.092002,2.732364,-1.636643\H,0,-1.057742,2.625288,1.402416\
 H,0,-0.658154,3.982309,0.345436\H,0,-0.722243,0.349384,1.23604\H,0,0.0
 54257,0.822676,-1.655703\H,0,-2.258427,0.07051,-2.295605\H,0,-0.061067
 ,-1.219099,-2.505026\H,0,-1.443668,-2.290352,-2.362841\H,0,0.398659,-2
 .986321,-0.837523\H,0,2.818874,-2.777398,-0.634255\H,0,5.117084,-1.883
 031,-0.952545\H,0,5.600324,0.505393,-0.499999\H,0,3.784142,2.047803,0.
 255463\\Version=AS64L-G16RevC.01\State=1-A\HF=-1073.7302256\RMSD=7.906
 e-09\Dipole=-1.1855396,-1.4771234,0.1656721\Quadrupole=2.5936404,-8.60
 46191,6.0109787,-7.5924761,-6.4952446,0.9192196\PG=C01 [X(C21H22N2O2)]
 \\@
 The archive entry for this job was punched.


 WOE UNTO THEM THAT CALL EVIL GOOD, AND GOOD EVIL      
 Job cpu time:       0 days  3 hours 52 minutes 15.2 seconds.
 Elapsed time:       0 days  0 hours 21 minutes 11.4 seconds.
 File lengths (MBytes):  RWF=    522 Int=      0 D2E=      0 Chk=     52 Scr=      1
 Normal termination of Gaussian 16 at Tue Sep  6 14:03:04 2022.
