Job Start Time: Tue Sep  6 13:41:52 MDT 2022
SLURM Job ID: 71068
SLURM Job Name: Strychnine_rdkit_conf_1_SP
 Entering Gaussian System, Link 0=/opt/apps/Gaussian/G16C/g16/g16
 Initial command:
 /opt/apps/Gaussian/G16C/g16/l1.exe "/tmp/Gau-2662529.inp" -scrdir="/tmp/"
 Entering Link 1 = /opt/apps/Gaussian/G16C/g16/l1.exe PID=   2662530.
  
 Copyright (c) 1988-2019, Gaussian, Inc.  All Rights Reserved.
  
 This is part of the Gaussian(R) 16 program.  It is based on
 the Gaussian(R) 09 system (copyright 2009, Gaussian, Inc.),
 the Gaussian(R) 03 system (copyright 2003, Gaussian, Inc.),
 the Gaussian(R) 98 system (copyright 1998, Gaussian, Inc.),
 the Gaussian(R) 94 system (copyright 1995, Gaussian, Inc.),
 the Gaussian 92(TM) system (copyright 1992, Gaussian, Inc.),
 the Gaussian 90(TM) system (copyright 1990, Gaussian, Inc.),
 the Gaussian 88(TM) system (copyright 1988, Gaussian, Inc.),
 the Gaussian 86(TM) system (copyright 1986, Carnegie Mellon
 University), and the Gaussian 82(TM) system (copyright 1983,
 Carnegie Mellon University). Gaussian is a federally registered
 trademark of Gaussian, Inc.
  
 This software contains proprietary and confidential information,
 including trade secrets, belonging to Gaussian, Inc.
  
 This software is provided under written license and may be
 used, copied, transmitted, or stored only in accord with that
 written license.
  
 The following legend is applicable only to US Government
 contracts under FAR:
  
                    RESTRICTED RIGHTS LEGEND
  
 Use, reproduction and disclosure by the US Government is
 subject to restrictions as set forth in subparagraphs (a)
 and (c) of the Commercial Computer Software - Restricted
 Rights clause in FAR 52.227-19.
  
 Gaussian, Inc.
 340 Quinnipiac St., Bldg. 40, Wallingford CT 06492
  
  
 ---------------------------------------------------------------
 Warning -- This program may not be used in any manner that
 competes with the business of Gaussian, Inc. or will provide
 assistance to any competitor of Gaussian, Inc.  The licensee
 of this program is prohibited from giving any competitor of
 Gaussian, Inc. access to this program.  By using this program,
 the user acknowledges that Gaussian, Inc. is engaged in the
 business of creating and licensing software in the field of
 computational chemistry and represents and warrants to the
 licensee that it is not a competitor of Gaussian, Inc. and that
 it will not use this program in any manner prohibited above.
 ---------------------------------------------------------------
  

 Cite this work as:
 Gaussian 16, Revision C.01,
 M. J. Frisch, G. W. Trucks, H. B. Schlegel, G. E. Scuseria, 
 M. A. Robb, J. R. Cheeseman, G. Scalmani, V. Barone, 
 G. A. Petersson, H. Nakatsuji, X. Li, M. Caricato, A. V. Marenich, 
 J. Bloino, B. G. Janesko, R. Gomperts, B. Mennucci, H. P. Hratchian, 
 J. V. Ortiz, A. F. Izmaylov, J. L. Sonnenberg, D. Williams-Young, 
 F. Ding, F. Lipparini, F. Egidi, J. Goings, B. Peng, A. Petrone, 
 T. Henderson, D. Ranasinghe, V. G. Zakrzewski, J. Gao, N. Rega, 
 G. Zheng, W. Liang, M. Hada, M. Ehara, K. Toyota, R. Fukuda, 
 J. Hasegawa, M. Ishida, T. Nakajima, Y. Honda, O. Kitao, H. Nakai, 
 T. Vreven, K. Throssell, J. A. Montgomery, Jr., J. E. Peralta, 
 F. Ogliaro, M. J. Bearpark, J. J. Heyd, E. N. Brothers, K. N. Kudin, 
 V. N. Staroverov, T. A. Keith, R. Kobayashi, J. Normand, 
 K. Raghavachari, A. P. Rendell, J. C. Burant, S. S. Iyengar, 
 J. Tomasi, M. Cossi, J. M. Millam, M. Klene, C. Adamo, R. Cammi, 
 J. W. Ochterski, R. L. Martin, K. Morokuma, O. Farkas, 
 J. B. Foresman, and D. J. Fox, Gaussian, Inc., Wallingford CT, 2019.
 
 ******************************************
 Gaussian 16:  AS64L-G16RevC.01  3-Jul-2019
                 6-Sep-2022 
 ******************************************
 %nprocshared=12
 Will use up to   12 processors via shared memory.
 %mem=16GB
 ------------------------------------------------------------
 # B3LYP/6-311+G(2d,p) scrf=(solvent=chloroform,smd) nmr=giao
 ------------------------------------------------------------
 1/38=1,172=1/1;
 2/12=2,17=6,18=5,40=1/2;
 3/5=4,6=6,7=112,11=2,25=1,30=1,70=32201,72=7,74=-5/1,2,3,8;
 4//1;
 5/5=2,38=5,53=7/2;
 8/6=1,10=90,11=11/1;
 10/13=100,45=16/2;
 6/7=2,8=2,9=2,10=2,28=1/1;
 99/9=1/99;
 --------------------------
 Strychnine_rdkit_conf_1_SP
 --------------------------
 Symbolic Z-matrix:
 Charge =  0 Multiplicity = 1
 C                     0.38893  -1.84255   1.73557 
 C                    -1.07691  -2.28396   1.71866 
 N                    -1.35613  -2.61923   0.30809 
 C                    -2.71371  -2.25789  -0.13505 
 C                    -2.82126  -0.77842  -0.44533 
 C                    -3.73217   0.02743   0.11721 
 C                    -3.73467   1.52458  -0.0747 
 O                    -2.55697   2.14397   0.45922 
 C                    -1.42271   2.19814  -0.40847 
 C                    -0.37909   3.05933   0.35476 
 C                     1.06511   2.56405   0.33608 
 O                     2.01659   3.33071   0.21472 
 N                     1.20842   1.20054   0.49191 
 C                     0.00454   0.33081   0.42444 
 C                    -0.81531   0.82828  -0.7817 
 C                    -1.73602  -0.25301  -1.38619 
 C                    -0.81637  -1.41461  -1.80943 
 C                    -0.25892  -2.08287  -0.55012 
 C                     0.56526  -1.1299    0.36891 
 C                     2.02078  -0.90555   0.01621 
 C                     3.0005   -1.83177  -0.33023 
 C                     4.31692  -1.39625  -0.53399 
 C                     4.64024  -0.04498  -0.37689 
 C                     3.67015   0.90051  -0.02229 
 C                     2.361     0.44888   0.16389 
 H                     0.63399  -1.19518   2.58322 
 H                     1.05591  -2.71077   1.77422 
 H                    -1.7258   -1.46526   2.07044 
 H                    -1.25911  -3.14837   2.36817 
 H                    -3.41989  -2.54458   0.64957 
 H                    -2.97025  -2.85877  -1.01714 
 H                    -4.47677  -0.39179   0.79239 
 H                    -4.56957   1.97862   0.4652 
 H                    -3.84113   1.79491  -1.13818 
 H                    -1.72325   2.70863  -1.33724 
 H                    -0.36331   4.08948  -0.00378 
 H                    -0.70777   3.08912   1.40096 
 H                    -0.59185   0.46602   1.33265 
 H                    -0.08798   1.0554   -1.57542 
 H                    -2.21954   0.17646  -2.27616 
 H                    -1.35557  -2.15     -2.4154 
 H                     0.01001  -1.046    -2.42706 
 H                     0.3979   -2.91296  -0.84376 
 H                     2.75267  -2.88427  -0.43968 
 H                     5.08675  -2.11125  -0.80815 
 H                     5.66363   0.2845   -0.53166 
 H                     3.91029   1.94804   0.09727 
 
                          Input orientation:                          
 ---------------------------------------------------------------------
 Center     Atomic      Atomic             Coordinates (Angstroms)
 Number     Number       Type             X           Y           Z
 ---------------------------------------------------------------------
      1          6           0        0.388929   -1.842547    1.735569
      2          6           0       -1.076906   -2.283961    1.718658
      3          7           0       -1.356134   -2.619233    0.308087
      4          6           0       -2.713709   -2.257889   -0.135051
      5          6           0       -2.821257   -0.778419   -0.445325
      6          6           0       -3.732174    0.027429    0.117211
      7          6           0       -3.734670    1.524579   -0.074701
      8          8           0       -2.556974    2.143968    0.459218
      9          6           0       -1.422712    2.198141   -0.408470
     10          6           0       -0.379091    3.059328    0.354762
     11          6           0        1.065109    2.564048    0.336081
     12          8           0        2.016594    3.330708    0.214715
     13          7           0        1.208418    1.200536    0.491907
     14          6           0        0.004543    0.330808    0.424442
     15          6           0       -0.815313    0.828282   -0.781697
     16          6           0       -1.736023   -0.253013   -1.386191
     17          6           0       -0.816374   -1.414609   -1.809432
     18          6           0       -0.258919   -2.082873   -0.550120
     19          6           0        0.565260   -1.129899    0.368909
     20          6           0        2.020778   -0.905548    0.016208
     21          6           0        3.000500   -1.831768   -0.330229
     22          6           0        4.316924   -1.396252   -0.533989
     23          6           0        4.640239   -0.044979   -0.376885
     24          6           0        3.670154    0.900505   -0.022286
     25          6           0        2.360996    0.448882    0.163886
     26          1           0        0.633989   -1.195182    2.583223
     27          1           0        1.055910   -2.710766    1.774221
     28          1           0       -1.725803   -1.465261    2.070441
     29          1           0       -1.259109   -3.148369    2.368174
     30          1           0       -3.419886   -2.544582    0.649572
     31          1           0       -2.970253   -2.858766   -1.017138
     32          1           0       -4.476774   -0.391790    0.792387
     33          1           0       -4.569572    1.978616    0.465204
     34          1           0       -3.841127    1.794914   -1.138176
     35          1           0       -1.723249    2.708633   -1.337235
     36          1           0       -0.363313    4.089479   -0.003781
     37          1           0       -0.707774    3.089123    1.400955
     38          1           0       -0.591853    0.466023    1.332648
     39          1           0       -0.087981    1.055401   -1.575416
     40          1           0       -2.219541    0.176455   -2.276157
     41          1           0       -1.355573   -2.150004   -2.415401
     42          1           0        0.010009   -1.045999   -2.427063
     43          1           0        0.397904   -2.912960   -0.843755
     44          1           0        2.752671   -2.884267   -0.439677
     45          1           0        5.086749   -2.111251   -0.808147
     46          1           0        5.663633    0.284502   -0.531663
     47          1           0        3.910291    1.948043    0.097270
 ---------------------------------------------------------------------
                    Distance matrix (angstroms):
                    1          2          3          4          5
     1  C    0.000000
     2  C    1.530949   0.000000
     3  N    2.384574   1.476511   0.000000
     4  C    3.646655   2.473063   1.473075   0.000000
     5  C    4.024172   3.161050   2.470387   1.515476   0.000000
     6  C    4.806182   3.867506   3.561856   2.514674   1.340003
     7  C    5.623049   4.978436   4.793239   3.918299   2.505092
     8  O    5.118566   4.835633   4.914564   4.444555   3.070568
     9  C    4.919970   4.973278   4.870829   4.647326   3.288951
    10  C    5.150229   5.558588   5.762191   5.827792   4.618725
    11  C    4.672672   5.477494   5.720979   6.144307   5.185221
    12  O    5.632482   6.584535   6.840015   7.330110   6.381644
    13  N    3.388010   4.343886   4.604493   5.266580   4.586169
    14  C    2.567154   3.111518   3.250803   3.795165   3.157851
    15  C    3.862662   4.000783   3.655882   3.680558   2.591996
    16  C    4.097246   3.768192   2.934943   2.557489   1.529383
    17  C    3.768676   3.642948   2.495265   2.667312   2.507006
    18  C    2.387852   2.420102   1.492676   2.495778   2.877179
    19  C    1.551360   2.418758   2.431783   3.503994   3.500716
    20  C    2.548941   3.793943   3.798084   4.926162   4.865643
    21  C    3.329856   4.585592   4.473009   5.733398   5.917402
    22  C    4.558423   5.912347   5.864159   7.094461   7.165417
    23  C    5.076155   6.487687   6.561437   7.683489   7.497769
    24  C    4.623941   5.975474   6.145020   7.123333   6.718345
    25  C    3.407328   4.658854   4.821948   5.759219   5.360331
    26  H    1.094373   2.204558   3.341370   4.441333   4.613515
    27  H    1.095519   2.175811   2.824161   4.249758   4.867522
    28  H    2.174069   1.102310   2.138738   2.543307   2.828577
    29  H    2.195766   1.096481   2.129168   3.029018   3.996592
    30  H    4.022352   2.588518   2.093145   1.093852   2.162519
    31  H    4.460292   3.376351   2.102136   1.097700   2.162640
    32  H    5.164238   3.999674   3.864511   2.729627   2.102891
    33  H    6.387632   5.651498   5.611692   4.663958   3.389234
    34  H    6.275580   5.695581   5.267975   4.324644   2.853458
    35  H    5.883592   5.889163   5.588203   5.205055   3.763065
    36  H    6.227370   6.640538   6.788945   6.769836   5.471095
    37  H    5.063210   5.395111   5.848082   5.913850   4.778435
    38  H    2.540428   2.818988   3.339559   3.751814   3.111280
    39  H    4.425852   4.793770   4.319575   4.466205   3.480057
    40  H    5.193691   4.828852   3.903801   3.279416   2.150766
    41  H    4.513133   4.145605   2.763614   2.656345   2.812592
    42  H    4.255065   4.461047   3.438380   3.760404   3.466259
    43  H    2.792629   3.022692   2.118883   3.257839   3.883041
    44  H    3.377003   4.436715   4.184695   5.510577   5.958465
    45  H    5.349038   6.663724   6.558564   7.830818   8.027742
    46  H    6.122678   7.556177   7.642904   8.763613   8.551644
    47  H    5.427024   6.738760   6.974216   7.849918   7.282976
                    6          7          8          9         10
     6  C    0.000000
     7  C    1.509402   0.000000
     8  O    2.444954   1.433764   0.000000
     9  C    3.212779   2.431098   1.429114   0.000000
    10  C    4.526810   3.714809   2.364735   1.553483   0.000000
    11  C    5.431046   4.928196   3.648440   2.622498   1.526881
    12  O    6.630950   6.035139   4.731348   3.674220   2.415071
    13  N    5.091761   4.985997   3.881921   2.954444   2.448285
    14  C    3.761580   3.956760   3.138491   2.493538   2.756239
    15  C    3.155547   3.083394   2.510833   1.544262   2.541534
    16  C    2.514654   2.978998   3.134488   2.657491   3.980425
    17  C    3.780650   4.490498   4.565077   3.922028   4.989095
    18  C    4.118520   5.031956   4.915893   4.438644   5.222594
    19  C    4.457656   5.072715   4.524898   3.953758   4.294371
    20  C    5.828988   6.248117   5.518299   4.655197   4.646959
    21  C    6.998980   7.529467   6.878606   5.984237   5.984452
    22  C    8.199933   8.577317   7.795517   6.773392   6.534113
    23  C    8.387292   8.526073   7.569044   6.464670   5.946907
    24  C    7.454943   7.431261   6.368294   5.269752   4.604244
    25  C    6.107907   6.194448   5.210275   4.207606   3.789319
    26  H    5.161334   5.791964   5.083657   4.969395   4.908485
    27  H    5.759266   6.656299   6.192787   5.916509   6.112943
    28  H    3.173130   4.192413   4.038987   4.433664   5.022857
    29  H    4.611787   5.825160   5.773855   6.026748   6.585117
    30  H    2.645028   4.145085   4.771096   5.253720   6.382566
    31  H    3.193336   4.548212   5.232377   5.323314   6.604549
    32  H    1.089053   2.230478   3.197922   4.180562   5.375196
    33  H    2.151619   1.093027   2.019388   3.273259   4.329003
    34  H    2.170684   1.102449   2.079076   2.558084   3.976594
    35  H    3.652403   2.653637   2.059414   1.101603   2.189201
    36  H    5.278647   4.236719   2.968422   2.205280   1.090877
    37  H    4.490987   3.713147   2.280291   2.139861   1.097014
    38  H    3.395772   3.602564   2.727651   2.592692   2.779705
    39  H    4.147512   3.971223   3.379444   2.109295   2.797509
    40  H    2.835221   2.993236   3.386332   2.865381   4.315084
    41  H    4.099216   4.964025   5.305186   4.789431   5.980339
    42  H    4.650754   5.115085   5.009582   4.080668   4.974300
    43  H    5.160125   6.112394   6.000130   5.443112   6.140716
    44  H    7.130309   7.852180   7.367733   6.577664   6.765012
    45  H    9.121603   9.569464   8.839661   7.816885   7.613321
    46  H    9.421694   9.490769   8.486332   7.341218   6.708198
    47  H    7.880129   7.658611   6.480348   5.362764   4.438474
                   11         12         13         14         15
    11  C    0.000000
    12  O    1.227934   0.000000
    13  N    1.379849   2.295129   0.000000
    14  C    2.473857   3.618250   1.486706   0.000000
    15  C    2.792543   3.908282   2.419944   1.540914   0.000000
    16  C    4.329942   5.430294   3.782828   2.578528   1.543476
    17  C    4.896214   5.885653   4.029259   2.951369   2.467144
    18  C    4.912461   5.921975   3.744285   2.616303   2.972882
    19  C    3.727757   4.693310   2.420683   1.565616   2.657884
    20  C    3.612993   4.240906   2.306904   2.400091   3.418513
    21  C    4.849011   5.283578   3.616951   3.771210   4.673341
    22  C    5.197624   5.310012   4.178347   4.743201   5.599086
    23  C    4.482956   4.316105   3.752799   4.719430   5.539811
    24  C    3.111601   2.948952   2.532698   3.736419   4.549872
    25  C    2.486544   2.902778   1.414573   2.373753   3.335717
    26  H    4.400832   5.291985   3.231569   2.717569   4.185400
    27  H    5.467357   6.313033   4.118965   3.489763   4.749637
    28  H    5.199281   6.360076   4.267071   2.988189   3.771475
    29  H    6.493312   7.572718   5.340603   4.180859   5.092386
    30  H    6.805260   8.016449   5.955835   4.477194   4.495391
    31  H    6.893639   8.043363   6.018010   4.593577   4.277093
    32  H    6.297433   7.506965   5.911616   4.554090   4.168047
    33  H    5.666483   6.728185   5.830205   4.862043   4.119768
    34  H    5.180362   6.204988   5.339322   4.401654   3.196405
    35  H    3.255124   4.096578   3.770250   3.426780   2.160715
    36  H    2.117271   2.507475   3.325964   3.800829   3.383026
    37  H    2.133723   2.981226   2.839880   3.011524   3.144350
    38  H    2.853135   4.032393   2.118332   1.094902   2.156762
    39  H    2.694337   3.579222   2.444492   2.129091   1.100266
    40  H    4.828386   5.839400   4.523475   3.501944   2.151777
    41  H    5.970983   6.951779   5.123730   4.008622   3.439630
    42  H    4.666973   5.491898   3.873434   3.166498   2.627035
    43  H    5.642233   6.536353   4.400202   3.505009   3.933527
    44  H    5.756197   6.292531   4.465219   4.316899   5.160476
    45  H    6.272262   6.331431   5.263034   5.771633   6.593625
    46  H    5.205356   4.810129   4.662162   5.739476   6.506532
    47  H    2.920882   2.347689   2.831011   4.239971   4.935360
                   16         17         18         19         20
    16  C    0.000000
    17  C    1.540841   0.000000
    18  C    2.495844   1.530751   0.000000
    19  C    3.024105   2.595215   1.559501   0.000000
    20  C    4.062767   3.411970   2.627516   1.514353   0.000000
    21  C    5.103153   4.114680   3.276464   2.629032   1.392034
    22  C    6.218634   5.289408   4.627099   3.867965   2.411596
    23  C    6.459001   5.805403   5.308933   4.282372   2.785081
    24  C    5.693645   5.355612   4.961529   3.730408   2.446171
    25  C    4.436323   4.178787   3.712619   2.399844   1.404293
    26  H    4.718144   4.631103   3.376850   2.216342   2.932002
    27  H    4.880947   4.245944   2.743280   2.171354   2.698220
    28  H    3.663053   3.985353   3.066029   2.873438   4.309295
    29  H    4.765059   4.544704   3.263756   3.376330   4.617321
    30  H    3.497287   3.755238   3.412352   4.238100   5.717378
    31  H    2.906798   2.711552   2.858574   4.172524   5.458320
    32  H    3.503880   4.605882   4.738395   5.113340   6.563885
    33  H    4.054236   5.547472   6.009019   6.003219   7.207823
    34  H    2.947368   4.461026   5.311803   5.499280   6.556449
    35  H    2.962078   4.248119   5.071720   4.783569   5.376974
    36  H    4.759478   5.810389   6.197363   5.314419   5.534852
    37  H    4.471616   5.531906   5.545963   4.526133   5.031890
    38  H    3.036153   3.668767   3.186304   2.194236   3.231108
    39  H    2.112770   2.585782   3.305936   2.997109   3.290206
    40  H    1.100124   2.172141   3.453665   4.056852   4.940240
    41  H    2.191481   1.094870   2.164816   3.533072   4.342941
    42  H    2.181942   1.095559   2.161098   2.851807   3.167411
    43  H    3.452999   2.156863   1.098491   2.162838   2.720838
    44  H    5.288455   4.095633   3.118350   2.918285   2.158432
    45  H    7.094886   6.027831   5.351967   4.774136   3.396095
    46  H    7.468203   6.819836   6.378199   5.367026   3.871276
    47  H    6.239084   6.106087   5.835213   4.553762   3.423421
                   21         22         23         24         25
    21  C    0.000000
    22  C    1.401487   0.000000
    23  C    2.425600   1.398268   0.000000
    24  C    2.829944   2.440337   1.400266   0.000000
    25  C    2.419603   2.777985   2.394009   1.397325   0.000000
    26  H    3.807075   4.829229   5.112264   4.516512   3.396865
    27  H    2.997128   4.205947   4.957932   4.806557   3.778863
    28  H    5.313707   6.580453   6.966570   6.252416   4.899063
    29  H    5.211438   6.525688   7.208931   6.812145   5.559160
    30  H    6.533718   7.910607   8.501014   7.911301   6.528041
    31  H    6.097250   7.448176   8.139220   7.695249   6.384165
    32  H    7.696975   8.949712   9.198228   8.288918   6.917864
    33  H    8.512211   9.558134   9.467031   8.324245   7.103777
    34  H    7.785465   8.780796   8.711965   7.646210   6.478696
    35  H    6.628960   7.347039   6.999902   5.838426   4.903152
    36  H    6.817842   7.230421   6.501422   5.141863   4.550156
    37  H    6.400270   7.007866   6.448609   5.097246   4.233032
    38  H    4.577117   5.572118   5.527966   4.493253   3.175786
    39  H    4.407375   5.147656   5.000338   4.069371   3.064396
    40  H    5.921860   6.945065   7.121295   6.347652   5.197052
    41  H    4.839895   6.023709   6.673563   6.347483   5.217261
    42  H    3.735931   4.717618   5.161812   4.792545   3.804580
    43  H    2.864645   4.213677   5.142051   5.091655   4.021325
    44  H    1.086808   2.161012   3.410046   3.916694   3.409924
    45  H    2.158460   1.085825   2.157507   3.419794   3.863788
    46  H    3.407558   2.153733   1.086209   2.147762   3.379086
    47  H    3.911195   3.427557   2.174807   1.081340   2.156904
                   26         27         28         29         30
    26  H    0.000000
    27  H    1.769038   0.000000
    28  H    2.429919   3.062182   0.000000
    29  H    2.728554   2.429730   1.771807   0.000000
    30  H    4.689754   4.617922   2.460431   2.826147   0.000000
    31  H    5.359167   4.901385   3.608830   3.804237   1.754652
    32  H    5.474708   6.078835   3.217702   4.520531   2.402482
    33  H    6.452600   7.439750   4.745956   6.392686   4.670663
    34  H    6.543405   7.263896   5.039698   6.587667   4.712188
    35  H    6.013845   6.839208   5.388289   6.946219   5.867048
    36  H    5.967817   7.170692   6.083906   7.669098   7.333504
    37  H    4.642559   6.073600   4.714553   6.336070   6.297520
    38  H    2.413758   3.605842   2.357973   3.818557   4.186658
    39  H    4.783371   5.168420   4.725301   5.881762   5.386283
    40  H    5.799793   5.955685   4.672464   5.791951   4.171901
    41  H    5.464090   4.866481   4.552881   4.887599   3.716334
    42  H    5.051195   4.638550   4.839046   5.387478   4.845164
    43  H    3.840661   2.706964   3.885679   3.621822   4.115975
    44  H    4.059525   2.794717   5.326443   4.903892   6.277126
    45  H    5.671653   4.824490   7.423910   7.171788   8.641502
    46  H    6.098303   5.959853   8.027227   8.253364   9.586936
    47  H    5.176290   5.715256   6.878198   7.606124   8.615115
                   31         32         33         34         35
    31  H    0.000000
    32  H    3.410272   0.000000
    33  H    5.306168   2.394678   0.000000
    34  H    4.736012   2.985430   1.770651   0.000000
    35  H    5.714316   4.661525   3.447211   2.315149   0.000000
    36  H    7.490069   6.134836   4.729514   4.318225   2.352501
    37  H    6.807596   5.166476   4.125814   4.235571   2.945106
    38  H    4.715135   4.015014   4.343115   4.292867   3.665738
    39  H    4.892839   5.192529   5.010101   3.850216   2.337522
    40  H    3.370647   3.851489   4.035528   2.558115   2.745871
    41  H    2.250483   4.808650   5.972703   4.834425   4.990389
    42  H    3.762443   5.560941   6.203714   4.956134   4.276584
    43  H    3.373052   5.726757   7.093427   6.341935   6.028691
    44  H    5.752041   7.745663   8.836384   8.115467   7.219418
    45  H    8.094303   9.847803  10.563757   9.750590   8.359862
    46  H    9.201076  10.248821  10.420281   9.643115   7.816098
    47  H    8.466948   8.735037   8.487896   7.850749   5.862856
                   36         37         38         39         40
    36  H    0.000000
    37  H    1.758593   0.000000
    38  H    3.868812   2.626549   0.000000
    39  H    3.428042   3.657725   3.009666   0.000000
    40  H    4.890913   4.928512   3.969470   2.409799   0.000000
    41  H    6.762517   6.514036   4.634084   3.547814   2.485607
    42  H    5.690764   5.680508   4.096813   2.269534   2.547167
    43  H    7.093600   6.502788   4.139309   4.064394   4.295030
    44  H    7.650653   7.144508   5.054841   4.988005   6.120749
    45  H    8.294530   8.093239   6.593320   6.115081   7.795545
    46  H    7.147068   7.224662   6.529909   5.896166   8.074612
    47  H    4.781177   4.932361   4.898147   4.425027   6.807828
                   41         42         43         44         45
    41  H    0.000000
    42  H    1.756069   0.000000
    43  H    2.475248   2.478481   0.000000
    44  H    4.617391   3.853716   2.389358   0.000000
    45  H    6.639901   5.434054   4.757024   2.486211   0.000000
    46  H    7.664499   6.109520   6.168393   4.303865   2.479692
    47  H    7.129995   5.527092   6.070563   4.997961   4.322233
                   46         47
    46  H    0.000000
    47  H    2.497425   0.000000
 Stoichiometry    C21H22N2O2
 Framework group  C1[X(C21H22N2O2)]
 Deg. of freedom   135
 Full point group                 C1      NOp   1
 Largest Abelian subgroup         C1      NOp   1
 Largest concise Abelian subgroup C1      NOp   1
                         Standard orientation:                         
 ---------------------------------------------------------------------
 Center     Atomic      Atomic             Coordinates (Angstroms)
 Number     Number       Type             X           Y           Z
 ---------------------------------------------------------------------
      1          6           0        0.388929   -1.842547    1.735569
      2          6           0       -1.076906   -2.283961    1.718658
      3          7           0       -1.356134   -2.619233    0.308087
      4          6           0       -2.713709   -2.257889   -0.135051
      5          6           0       -2.821257   -0.778419   -0.445325
      6          6           0       -3.732174    0.027429    0.117211
      7          6           0       -3.734670    1.524579   -0.074701
      8          8           0       -2.556974    2.143968    0.459218
      9          6           0       -1.422712    2.198141   -0.408470
     10          6           0       -0.379091    3.059328    0.354762
     11          6           0        1.065109    2.564048    0.336081
     12          8           0        2.016594    3.330708    0.214715
     13          7           0        1.208418    1.200536    0.491907
     14          6           0        0.004543    0.330808    0.424442
     15          6           0       -0.815313    0.828282   -0.781697
     16          6           0       -1.736023   -0.253013   -1.386191
     17          6           0       -0.816374   -1.414609   -1.809432
     18          6           0       -0.258919   -2.082873   -0.550120
     19          6           0        0.565260   -1.129899    0.368909
     20          6           0        2.020778   -0.905548    0.016208
     21          6           0        3.000500   -1.831768   -0.330229
     22          6           0        4.316924   -1.396252   -0.533989
     23          6           0        4.640239   -0.044979   -0.376885
     24          6           0        3.670154    0.900505   -0.022286
     25          6           0        2.360996    0.448882    0.163886
     26          1           0        0.633989   -1.195182    2.583223
     27          1           0        1.055910   -2.710766    1.774221
     28          1           0       -1.725803   -1.465261    2.070441
     29          1           0       -1.259109   -3.148369    2.368174
     30          1           0       -3.419886   -2.544582    0.649572
     31          1           0       -2.970253   -2.858766   -1.017138
     32          1           0       -4.476774   -0.391790    0.792387
     33          1           0       -4.569572    1.978616    0.465204
     34          1           0       -3.841127    1.794914   -1.138176
     35          1           0       -1.723249    2.708633   -1.337235
     36          1           0       -0.363313    4.089479   -0.003781
     37          1           0       -0.707774    3.089123    1.400955
     38          1           0       -0.591853    0.466023    1.332648
     39          1           0       -0.087981    1.055401   -1.575416
     40          1           0       -2.219541    0.176455   -2.276157
     41          1           0       -1.355573   -2.150004   -2.415401
     42          1           0        0.010009   -1.045999   -2.427063
     43          1           0        0.397904   -2.912960   -0.843755
     44          1           0        2.752671   -2.884267   -0.439677
     45          1           0        5.086749   -2.111251   -0.808147
     46          1           0        5.663633    0.284502   -0.531663
     47          1           0        3.910291    1.948043    0.097270
 ---------------------------------------------------------------------
 Rotational constants (GHZ):           0.3785512           0.2393384           0.1683596
 Standard basis: 6-311+G(2d,p) (5D, 7F)
 There are   857 symmetry adapted cartesian basis functions of A   symmetry.
 There are   807 symmetry adapted basis functions of A   symmetry.
   807 basis functions,  1226 primitive gaussians,   857 cartesian basis functions
    89 alpha electrons       89 beta electrons
       nuclear repulsion energy      2378.1031089350 Hartrees.
 NAtoms=   47 NActive=   47 NUniq=   47 SFac= 1.00D+00 NAtFMM=   60 NAOKFM=F Big=F
 Integral buffers will be    131072 words long.
 Raffenetti 2 integral format.
 Two-electron integral symmetry is turned on.
 ------------------------------------------------------------------------------
 Polarizable Continuum Model (PCM)
 =================================
 Model                : PCM.
 Atomic radii         : SMD-Coulomb.
 Polarization charges : Total charges.
 Charge compensation  : None.
 Solution method      : On-the-fly selection.
 Cavity type          : VdW (van der Waals Surface) (Alpha=1.000).
 Cavity algorithm     : GePol (No added spheres)
                        Default sphere list used, NSphG=   47.
                        Lebedev-Laikov grids with approx.  5.0 points / Ang**2.
                        Smoothing algorithm: York/Karplus (Gamma=1.0000).
                        Polarization charges: spherical gaussians, with
                                              point-specific exponents (IZeta= 3).
                        Self-potential: point-specific (ISelfS= 7).
                        Self-field    : sphere-specific E.n sum rule (ISelfD= 2).
 Solvent              : Chloroform, Eps=   4.711300 Eps(inf)=   2.090627
 ------------------------------------------------------------------------------
 ------------------------------------------------------------------------------
 Atomic radii for non-electrostatic terms: SMD-CDS.
 ------------------------------------------------------------------------------
 Nuclear repulsion after PCM non-electrostatic terms =     2378.0913747988 Hartrees.
 One-electron integrals computed using PRISM.
 NBasis=   807 RedAO= T EigKep=  1.24D-06  NBF=   807
 NBsUse=   802 1.00D-06 EigRej=  8.79D-07 NBFU=   802
 ExpMin= 4.38D-02 ExpMax= 8.59D+03 ExpMxC= 1.30D+03 IAcc=3 IRadAn=         5 AccDes= 0.00D+00
 Harris functional with IExCor=  402 and IRadAn=       5 diagonalized for initial guess.
 HarFok:  IExCor=  402 AccDes= 0.00D+00 IRadAn=         5 IDoV= 1 UseB2=F ITyADJ=14
 ICtDFT=  3500011 ScaDFX=  1.000000  1.000000  1.000000  1.000000
 FoFCou: FMM=F IPFlag=           0 FMFlag=      100000 FMFlg1=           0
         NFxFlg=           0 DoJE=T BraDBF=F KetDBF=T FulRan=T
         wScrn=  0.000000 ICntrl=       500 IOpCl=  0 I1Cent=   200000004 NGrid=           0
         NMat0=    1 NMatS0=      1 NMatT0=    0 NMatD0=    1 NMtDS0=    0 NMtDT0=    0
 Petite list used in FoFCou.
 Requested convergence on RMS density matrix=1.00D-08 within 128 cycles.
 Requested convergence on MAX density matrix=1.00D-06.
 Requested convergence on             energy=1.00D-06.
 No special actions if energy rises.
 Inv3:  Mode=1 IEnd=    27036012.
 Iteration    1 A*A^-1 deviation from unit magnitude is 7.77D-15 for   2998.
 Iteration    1 A*A^-1 deviation from orthogonality  is 2.78D-15 for   2995   2936.
 Iteration    1 A^-1*A deviation from unit magnitude is 7.66D-15 for   2998.
 Iteration    1 A^-1*A deviation from orthogonality  is 2.45D-15 for   2995   2936.
 Error on total polarization charges =  0.05854
 SCF Done:  E(RB3LYP) =  -1073.73524363     A.U. after   14 cycles
            NFock= 14  Conv=0.85D-08     -V/T= 2.0046
 SMD-CDS (non-electrostatic) energy       (kcal/mol) =      -7.36
 (included in total energy above)
 DoSCS=F DFT=T ScalE2(SS,OS)=  1.000000  1.000000
 Range of M.O.s used for correlation:     1   802
 NBasis=   807 NAE=    89 NBE=    89 NFC=     0 NFV=     0
 NROrb=    802 NOA=    89 NOB=    89 NVA=   713 NVB=   713

 **** Warning!!: The largest alpha MO coefficient is  0.10857844D+03

 NEqPCM:  Using equilibrium solvation (IEInf=0, Eps=   4.7113, EpsInf=   2.0906)
          Differentiating once with respect to magnetic field using GIAOs.
          Electric field/nuclear overlap derivatives assumed to be zero.
 FoFJK:  IHMeth= 1 ICntrl=    6127 DoSepK=F KAlg= 0 I1Cent=           0 FoldK=F
 IRaf=         1 NMat=       1 IRICut=       1 DoRegI=T DoRafI=F ISym2E= 0 IDoP0=0 IntGTp=1.
          There are     3 degrees of freedom in the 1st order CPHF.  IDoFFX=0 NUNeed=     3.
      3 vectors produced by pass  0 Test12= 2.12D-12 3.33D-08 XBig12= 3.97D+02 2.38D+00.
 AX will form     3 AO Fock derivatives at one time.
      3 vectors produced by pass  1 Test12= 2.12D-12 3.33D-08 XBig12= 1.14D+00 3.45D-01.
      3 vectors produced by pass  2 Test12= 2.12D-12 3.33D-08 XBig12= 4.10D-03 2.54D-02.
      3 vectors produced by pass  3 Test12= 2.12D-12 3.33D-08 XBig12= 1.21D-05 8.82D-04.
      3 vectors produced by pass  4 Test12= 2.12D-12 3.33D-08 XBig12= 3.92D-08 3.83D-05.
      3 vectors produced by pass  5 Test12= 2.12D-12 3.33D-08 XBig12= 1.58D-10 2.90D-06.
      3 vectors produced by pass  6 Test12= 2.12D-12 3.33D-08 XBig12= 5.36D-13 1.71D-07.
 InvSVY:  IOpt=1 It=  1 EMax= 7.11D-15
 Solved reduced A of dimension    21 with     3 vectors.
 Calculating GIAO nuclear magnetic shielding tensors.
 SCF GIAO Magnetic shielding tensor (ppm):
      1  C    Isotropic =   135.6273   Anisotropy =    46.0474
   XX=   134.0299   YX=    13.8755   ZX=    -6.1129
   XY=     2.5162   YY=   124.9130   ZY=   -20.6376
   XZ=   -13.7774   YZ=   -23.4160   ZZ=   147.9390
   Eigenvalues:   111.3937   129.1626   166.3256
      2  C    Isotropic =   129.1366   Anisotropy =    58.4454
   XX=   125.1498   YX=    20.3963   ZX=    10.3966
   XY=    12.7989   YY=   100.5567   ZY=     9.7570
   XZ=    13.2171   YZ=     8.8762   ZZ=   161.7034
   Eigenvalues:    92.0562   127.2534   168.1002
      3  N    Isotropic =   197.4644   Anisotropy =    62.9375
   XX=   228.0486   YX=    25.8315   ZX=    -2.5966
   XY=    41.4425   YY=   138.7165   ZY=   -14.9247
   XZ=     9.1908   YZ=   -12.5264   ZZ=   225.6282
   Eigenvalues:   125.4922   227.4783   239.4227
      4  C    Isotropic =   126.9888   Anisotropy =    29.6741
   XX=   140.4417   YX=    -2.9150   ZX=    12.0091
   XY=   -12.3396   YY=   123.3549   ZY=    -5.8025
   XZ=     6.2873   YZ=    -2.6811   ZZ=   117.1698
   Eigenvalues:   113.6857   120.5092   146.7715
      5  C    Isotropic =    26.3244   Anisotropy =   173.9354
   XX=    57.4510   YX=   -24.8921   ZX=    79.1625
   XY=   -14.1000   YY=   -50.7403   ZY=    52.6697
   XZ=    68.9909   YZ=    44.7959   ZZ=    72.2626
   Eigenvalues:   -83.2961    19.9880   142.2814
      6  C    Isotropic =    48.8154   Anisotropy =   132.2535
   XX=    67.7816   YX=   -44.8067   ZX=    66.2248
   XY=   -42.9935   YY=    11.9893   ZY=    53.6377
   XZ=    73.2672   YZ=    37.3166   ZZ=    66.6754
   Eigenvalues:   -58.8851    68.3469   136.9845
      7  C    Isotropic =   114.1301   Anisotropy =    73.0015
   XX=   143.6089   YX=    20.8891   ZX=    20.6845
   XY=    23.7987   YY=   105.3278   ZY=     8.6297
   XZ=    27.1820   YZ=     6.1217   ZZ=    93.4535
   Eigenvalues:    83.7095    95.8830   162.7977
      8  O    Isotropic =   249.4269   Anisotropy =   102.6990
   XX=   266.0221   YX=    32.9679   ZX=    45.5284
   XY=    19.8423   YY=   232.9147   ZY=    12.8215
   XZ=    57.9976   YZ=     4.0053   ZZ=   249.3440
   Eigenvalues:   200.8497   229.5382   317.8929
      9  C    Isotropic =    98.9693   Anisotropy =    55.2847
   XX=   116.8604   YX=     6.6433   ZX=   -28.3442
   XY=    -0.3056   YY=    82.7806   ZY=    -8.4194
   XZ=   -24.8724   YZ=     1.2525   ZZ=    97.2668
   Eigenvalues:    78.3926    82.6895   135.8257
     10  C    Isotropic =   135.0468   Anisotropy =    41.2147
   XX=   162.3449   YX=    -0.0158   ZX=     2.9190
   XY=     4.7981   YY=   126.8353   ZY=     8.7530
   XZ=    -1.9073   YZ=     3.3273   ZZ=   115.9603
   Eigenvalues:   113.2654   129.3518   162.5233
     11  C    Isotropic =     4.5701   Anisotropy =   116.3347
   XX=   -22.1061   YX=    31.9703   ZX=    -1.0058
   XY=    53.2737   YY=   -45.6003   ZY=    11.2975
   XZ=    -1.2948   YZ=     7.1814   ZZ=    81.4167
   Eigenvalues:   -78.4701    10.0538    82.1265
     12  O    Isotropic =   -89.3071   Anisotropy =   598.5459
   XX=  -251.2866   YX=   -85.1578   ZX=    24.6422
   XY=  -102.9769   YY=  -321.8655   ZY=    82.6845
   XZ=    10.4565   YZ=    21.7632   ZZ=   305.2307
   Eigenvalues:  -391.0738  -186.5711   309.7235
     13  N    Isotropic =    72.2686   Anisotropy =    88.8526
   XX=    -5.2793   YX=   -41.2030   ZX=    12.5393
   XY=   -82.6690   YY=   102.8767   ZY=     7.6685
   XZ=    14.8411   YZ=     9.7724   ZZ=   119.2082
   Eigenvalues:   -35.0978   120.3998   131.5036
     14  C    Isotropic =   116.2511   Anisotropy =    40.9495
   XX=   119.6517   YX=    14.6151   ZX=    -0.5341
   XY=     8.5763   YY=   137.2273   ZY=     3.0471
   XZ=    13.0341   YZ=     2.7015   ZZ=    91.8742
   Eigenvalues:    90.5294   114.6731   143.5507
     15  C    Isotropic =   128.8266   Anisotropy =    19.1701
   XX=   133.7144   YX=    16.7695   ZX=     7.4418
   XY=     4.9155   YY=   121.2736   ZY=    -7.0853
   XZ=   -13.3703   YZ=     1.2375   ZZ=   131.4920
   Eigenvalues:   114.9253   129.9479   141.6067
     16  C    Isotropic =   144.5030   Anisotropy =    13.2014
   XX=   142.6521   YX=     9.2588   ZX=     1.1632
   XY=     6.5433   YY=   137.8357   ZY=    -0.4726
   XZ=    -3.5846   YZ=     4.6304   ZZ=   153.0212
   Eigenvalues:   131.7156   148.4895   153.3040
     17  C    Isotropic =   152.2245   Anisotropy =    15.1772
   XX=   154.4773   YX=    -4.5236   ZX=    -9.1248
   XY=     0.6988   YY=   161.5389   ZY=     2.7077
   XZ=    -2.9499   YZ=    -0.8366   ZZ=   140.6573
   Eigenvalues:   138.3896   155.9413   162.3427
     18  C    Isotropic =   115.6365   Anisotropy =    39.4317
   XX=   124.9112   YX=    19.8454   ZX=   -15.2607
   XY=    19.9538   YY=   106.0234   ZY=     6.8005
   XZ=   -12.8247   YZ=    -0.8781   ZZ=   115.9748
   Eigenvalues:    89.3417   115.6434   141.9243
     19  C    Isotropic =   123.1797   Anisotropy =    27.2637
   XX=   134.8830   YX=     7.5860   ZX=    -2.1056
   XY=    15.3617   YY=   117.0291   ZY=     0.8338
   XZ=    -6.3136   YZ=    -4.2050   ZZ=   117.6272
   Eigenvalues:   111.3982   116.7855   141.3555
     20  C    Isotropic =    40.1441   Anisotropy =   153.2579
   XX=   -20.9338   YX=   -18.3411   ZX=    34.7160
   XY=   -24.0216   YY=     8.3393   ZY=   -18.2765
   XZ=    28.0759   YZ=   -14.8871   ZZ=   133.0269
   Eigenvalues:   -34.7035    12.8199   142.3161
     21  C    Isotropic =    54.1853   Anisotropy =   180.5581
   XX=    38.5075   YX=   -25.5802   ZX=    25.7119
   XY=   -24.4359   YY=   -40.9810   ZY=   -29.0992
   XZ=    26.2676   YZ=   -23.3955   ZZ=   165.0295
   Eigenvalues:   -49.7860    37.7846   174.5573
     22  C    Isotropic =    53.9706   Anisotropy =   176.9497
   XX=     1.7510   YX=    40.1648   ZX=    41.6300
   XY=    43.0610   YY=     3.4450   ZY=   -36.2913
   XZ=    44.7394   YZ=   -36.7863   ZZ=   156.7158
   Eigenvalues:   -54.1320    44.1067   171.9371
     23  C    Isotropic =    48.9523   Anisotropy =   183.8945
   XX=   -44.2552   YX=   -31.6482   ZX=    39.3948
   XY=   -32.9797   YY=    30.2136   ZY=   -17.1144
   XZ=    33.9492   YZ=   -21.0183   ZZ=   160.8986
   Eigenvalues:   -59.9436    35.2519   171.5486
     24  C    Isotropic =    61.4962   Anisotropy =   163.9029
   XX=    36.7533   YX=   -19.0667   ZX=    25.1557
   XY=   -22.0478   YY=   -15.5594   ZY=   -28.1142
   XZ=    10.4130   YZ=   -27.6178   ZZ=   163.2947
   Eigenvalues:   -25.0290    38.7528   170.7648
     25  C    Isotropic =    31.2841   Anisotropy =   130.4410
   XX=    -6.7360   YX=    41.0248   ZX=    30.4862
   XY=    51.9790   YY=    -6.0879   ZY=   -27.9019
   XZ=    42.6154   YZ=   -18.6985   ZZ=   106.6763
   Eigenvalues:   -63.5066    39.1141   118.2448
     26  H    Isotropic =    29.9135   Anisotropy =     6.9657
   XX=    27.8824   YX=     0.7184   ZX=     3.0714
   XY=     1.5595   YY=    27.9639   ZY=     0.2106
   XZ=     0.8978   YZ=     0.4789   ZZ=    33.8943
   Eigenvalues:    26.5584    28.6248    34.5573
     27  H    Isotropic =    29.9085   Anisotropy =     8.9512
   XX=    31.1333   YX=    -3.2360   ZX=     1.4405
   XY=    -3.2110   YY=    30.8983   ZY=    -3.5201
   XZ=    -0.1737   YZ=    -5.1196   ZZ=    27.6939
   Eigenvalues:    24.3876    29.4619    35.8760
     28  H    Isotropic =    28.8070   Anisotropy =     5.7359
   XX=    28.6707   YX=    -0.4261   ZX=    -1.7147
   XY=    -1.8330   YY=    26.9378   ZY=     0.7835
   XZ=    -2.6741   YZ=     1.5624   ZZ=    30.8127
   Eigenvalues:    26.3777    27.4124    32.6310
     29  H    Isotropic =    28.6835   Anisotropy =    10.9769
   XX=    25.3660   YX=     2.1567   ZX=    -0.7411
   XY=     2.1109   YY=    29.0023   ZY=    -4.1460
   XZ=    -1.7496   YZ=    -5.8277   ZZ=    31.6822
   Eigenvalues:    24.0978    25.9513    36.0014
     30  H    Isotropic =    29.1520   Anisotropy =     8.0684
   XX=    33.4795   YX=     1.7304   ZX=    -1.7159
   XY=     2.1597   YY=    28.2286   ZY=    -1.6411
   XZ=    -0.9805   YZ=    -2.1053   ZZ=    25.7478
   Eigenvalues:    24.7320    28.1930    34.5309
     31  H    Isotropic =    27.9187   Anisotropy =     9.2970
   XX=    29.1881   YX=     3.7265   ZX=     3.9563
   XY=     2.0845   YY=    28.1574   ZY=     2.6055
   XZ=     2.5997   YZ=     3.2179   ZZ=    26.4106
   Eigenvalues:    23.9114    25.7281    34.1167
     32  H    Isotropic =    25.6140   Anisotropy =     5.4311
   XX=    27.5840   YX=    -0.9168   ZX=    -1.3001
   XY=    -2.5446   YY=    26.4623   ZY=     1.4185
   XZ=    -0.6576   YZ=     1.2668   ZZ=    22.7956
   Eigenvalues:    22.3218    25.2854    29.2347
     33  H    Isotropic =    27.6409   Anisotropy =     9.6179
   XX=    33.6239   YX=    -1.6767   ZX=    -2.7217
   XY=    -0.4901   YY=    26.7180   ZY=     1.0472
   XZ=    -0.5088   YZ=     0.7516   ZZ=    22.5809
   Eigenvalues:    22.2253    26.6446    34.0529
     34  H    Isotropic =    27.4891   Anisotropy =     7.1175
   XX=    29.3836   YX=    -2.0915   ZX=     5.2823
   XY=    -0.3691   YY=    27.0356   ZY=     0.1425
   XZ=     2.4042   YZ=    -1.1555   ZZ=    26.0481
   Eigenvalues:    23.5073    26.7258    32.2341
     35  H    Isotropic =    27.4290   Anisotropy =     6.2806
   XX=    26.0268   YX=     0.4266   ZX=    -1.8729
   XY=    -1.3661   YY=    29.3039   ZY=    -3.4311
   XZ=     1.4744   YZ=    -3.1059   ZZ=    26.9564
   Eigenvalues:    24.5309    26.1400    31.6161
     36  H    Isotropic =    28.7887   Anisotropy =     7.4980
   XX=    28.4835   YX=     0.6289   ZX=     1.1343
   XY=     2.3759   YY=    33.3030   ZY=    -0.9179
   XZ=     1.3587   YZ=    -1.2363   ZZ=    24.5796
   Eigenvalues:    23.9817    28.5970    33.7874
     37  H    Isotropic =    29.1421   Anisotropy =     4.6811
   XX=    29.0755   YX=     0.7358   ZX=    -0.7427
   XY=     0.0734   YY=    29.1812   ZY=     3.1971
   XZ=    -1.0707   YZ=     2.8954   ZZ=    29.1697
   Eigenvalues:    25.8600    29.3036    32.2629
     38  H    Isotropic =    27.8677   Anisotropy =     3.2587
   XX=    27.2121   YX=    -1.1634   ZX=    -0.6042
   XY=    -0.4830   YY=    29.7999   ZY=    -0.1955
   XZ=    -1.1395   YZ=    -0.4001   ZZ=    26.5910
   Eigenvalues:    25.8415    27.7213    30.0401
     39  H    Isotropic =    30.6321   Anisotropy =     2.9545
   XX=    30.0498   YX=     0.2744   ZX=    -2.8405
   XY=     1.2634   YY=    30.6937   ZY=    -1.2249
   XZ=     0.8418   YZ=    -0.8360   ZZ=    31.1528
   Eigenvalues:    29.4259    29.8686    32.6018
     40  H    Isotropic =    28.6188   Anisotropy =     8.3365
   XX=    27.5110   YX=    -2.3506   ZX=     3.0224
   XY=    -2.3038   YY=    27.1109   ZY=    -0.3877
   XZ=     4.1947   YZ=    -2.0647   ZZ=    31.2346
   Eigenvalues:    24.4448    27.2351    34.1765
     41  H    Isotropic =    29.4647   Anisotropy =    10.4338
   XX=    26.4381   YX=     1.5252   ZX=     1.8909
   XY=     1.5661   YY=    30.1220   ZY=     4.6196
   XZ=     2.1786   YZ=     4.8059   ZZ=    31.8339
   Eigenvalues:    25.7555    26.2179    36.4206
     42  H    Isotropic =    30.4285   Anisotropy =     6.7036
   XX=    30.2183   YX=     0.5861   ZX=    -3.4287
   XY=    -0.0520   YY=    27.2159   ZY=    -0.2658
   XZ=    -0.9746   YZ=     1.0816   ZZ=    33.8513
   Eigenvalues:    27.1236    29.2643    34.8976
     43  H    Isotropic =    27.7513   Anisotropy =     9.0953
   XX=    29.9085   YX=    -3.2128   ZX=    -2.9405
   XY=    -2.8224   YY=    29.0911   ZY=     1.6190
   XZ=    -2.1404   YZ=     3.1557   ZZ=    24.2543
   Eigenvalues:    22.9806    26.4584    33.8148
     44  H    Isotropic =    24.2817   Anisotropy =    10.1671
   XX=    29.8557   YX=    -2.8721   ZX=    -2.0373
   XY=    -2.0607   YY=    22.6655   ZY=     0.7882
   XZ=    -1.9044   YZ=     1.1575   ZZ=    20.3239
   Eigenvalues:    19.8296    21.9557    31.0598
     45  H    Isotropic =    24.4343   Anisotropy =     4.9934
   XX=    26.9263   YX=     1.2205   ZX=    -0.8933
   XY=     1.4973   YY=    25.3955   ZY=     0.4044
   XZ=    -0.7780   YZ=     0.3507   ZZ=    20.9810
   Eigenvalues:    20.7935    24.7461    27.7632
     46  H    Isotropic =    24.2484   Anisotropy =     4.5772
   XX=    25.1873   YX=    -0.8097   ZX=    -0.8491
   XY=    -0.9131   YY=    26.5596   ZY=     1.1230
   XZ=    -1.3251   YZ=     0.9800   ZZ=    20.9985
   Eigenvalues:    20.6160    24.8294    27.2999
     47  H    Isotropic =    23.3187   Anisotropy =     9.3573
   XX=    29.0724   YX=    -1.1556   ZX=    -1.5178
   XY=    -1.8333   YY=    23.6792   ZY=     0.8408
   XZ=    -0.1952   YZ=     1.2903   ZZ=    17.2046
   Eigenvalues:    17.0020    23.3972    29.5569
 End of Minotr F.D. properties file   721 does not exist.
 End of Minotr F.D. properties file   722 does not exist.
 End of Minotr F.D. properties file   788 does not exist.

 **********************************************************************

            Population analysis using the SCF Density.

 **********************************************************************

 Orbital symmetries:
       Occupied  (A) (A) (A) (A) (A) (A) (A) (A) (A) (A) (A) (A)
                 (A) (A) (A) (A) (A) (A) (A) (A) (A) (A) (A) (A)
                 (A) (A) (A) (A) (A) (A) (A) (A) (A) (A) (A) (A)
                 (A) (A) (A) (A) (A) (A) (A) (A) (A) (A) (A) (A)
                 (A) (A) (A) (A) (A) (A) (A) (A) (A) (A) (A) (A)
                 (A) (A) (A) (A) (A) (A) (A) (A) (A) (A) (A) (A)
                 (A) (A) (A) (A) (A) (A) (A) (A) (A) (A) (A) (A)
                 (A) (A) (A) (A) (A)
       Virtual   (A) (A) (A) (A) (A) (A) (A) (A) (A) (A) (A) (A)
                 (A) (A) (A) (A) (A) (A) (A) (A) (A) (A) (A) (A)
                 (A) (A) (A) (A) (A) (A) (A) (A) (A) (A) (A) (A)
                 (A) (A) (A) (A) (A) (A) (A) (A) (A) (A) (A) (A)
                 (A) (A) (A) (A) (A) (A) (A) (A) (A) (A) (A) (A)
                 (A) (A) (A) (A) (A) (A) (A) (A) (A) (A) (A) (A)
                 (A) (A) (A) (A) (A) (A) (A) (A) (A) (A) (A) (A)
                 (A) (A) (A) (A) (A) (A) (A) (A) (A) (A) (A) (A)
                 (A) (A) (A) (A) (A) (A) (A) (A) (A) (A) (A) (A)
                 (A) (A) (A) (A) (A) (A) (A) (A) (A) (A) (A) (A)
                 (A) (A) (A) (A) (A) (A) (A) (A) (A) (A) (A) (A)
                 (A) (A) (A) (A) (A) (A) (A) (A) (A) (A) (A) (A)
                 (A) (A) (A) (A) (A) (A) (A) (A) (A) (A) (A) (A)
                 (A) (A) (A) (A) (A) (A) (A) (A) (A) (A) (A) (A)
                 (A) (A) (A) (A) (A) (A) (A) (A) (A) (A) (A) (A)
                 (A) (A) (A) (A) (A) (A) (A) (A) (A) (A) (A) (A)
                 (A) (A) (A) (A) (A) (A) (A) (A) (A) (A) (A) (A)
                 (A) (A) (A) (A) (A) (A) (A) (A) (A) (A) (A) (A)
                 (A) (A) (A) (A) (A) (A) (A) (A) (A) (A) (A) (A)
                 (A) (A) (A) (A) (A) (A) (A) (A) (A) (A) (A) (A)
                 (A) (A) (A) (A) (A) (A) (A) (A) (A) (A) (A) (A)
                 (A) (A) (A) (A) (A) (A) (A) (A) (A) (A) (A) (A)
                 (A) (A) (A) (A) (A) (A) (A) (A) (A) (A) (A) (A)
                 (A) (A) (A) (A) (A) (A) (A) (A) (A) (A) (A) (A)
                 (A) (A) (A) (A) (A) (A) (A) (A) (A) (A) (A) (A)
                 (A) (A) (A) (A) (A) (A) (A) (A) (A) (A) (A) (A)
                 (A) (A) (A) (A) (A) (A) (A) (A) (A) (A) (A) (A)
                 (A) (A) (A) (A) (A) (A) (A) (A) (A) (A) (A) (A)
                 (A) (A) (A) (A) (A) (A) (A) (A) (A) (A) (A) (A)
                 (A) (A) (A) (A) (A) (A) (A) (A) (A) (A) (A) (A)
                 (A) (A) (A) (A) (A) (A) (A) (A) (A) (A) (A) (A)
                 (A) (A) (A) (A) (A) (A) (A) (A) (A) (A) (A) (A)
                 (A) (A) (A) (A) (A) (A) (A) (A) (A) (A) (A) (A)
                 (A) (A) (A) (A) (A) (A) (A) (A) (A) (A) (A) (A)
                 (A) (A) (A) (A) (A) (A) (A) (A) (A) (A) (A) (A)
                 (A) (A) (A) (A) (A) (A) (A) (A) (A) (A) (A) (A)
                 (A) (A) (A) (A) (A) (A) (A) (A) (A) (A) (A) (A)
                 (A) (A) (A) (A) (A) (A) (A) (A) (A) (A) (A) (A)
                 (A) (A) (A) (A) (A) (A) (A) (A) (A) (A) (A) (A)
                 (A) (A) (A) (A) (A) (A) (A) (A) (A) (A) (A) (A)
                 (A) (A) (A) (A) (A) (A) (A) (A) (A) (A) (A) (A)
                 (A) (A) (A) (A) (A) (A) (A) (A) (A) (A) (A) (A)
                 (A) (A) (A) (A) (A) (A) (A) (A) (A) (A) (A) (A)
                 (A) (A) (A) (A) (A) (A) (A) (A) (A) (A) (A) (A)
                 (A) (A) (A) (A) (A) (A) (A) (A) (A) (A) (A) (A)
                 (A) (A) (A) (A) (A) (A) (A) (A) (A) (A) (A) (A)
                 (A) (A) (A) (A) (A) (A) (A) (A) (A) (A) (A) (A)
                 (A) (A) (A) (A) (A) (A) (A) (A) (A) (A) (A) (A)
                 (A) (A) (A) (A) (A) (A) (A) (A) (A) (A) (A) (A)
                 (A) (A) (A) (A) (A) (A) (A) (A) (A) (A) (A) (A)
                 (A) (A) (A) (A) (A) (A) (A) (A) (A) (A) (A) (A)
                 (A) (A) (A) (A) (A) (A) (A) (A) (A) (A) (A) (A)
                 (A) (A) (A) (A) (A) (A) (A) (A) (A) (A) (A) (A)
                 (A) (A) (A) (A) (A) (A) (A) (A) (A) (A) (A) (A)
                 (A) (A) (A) (A) (A) (A) (A) (A) (A) (A) (A) (A)
                 (A) (A) (A) (A) (A) (A) (A) (A) (A) (A) (A) (A)
                 (A) (A) (A) (A) (A) (A) (A) (A) (A) (A) (A) (A)
                 (A) (A) (A) (A) (A) (A) (A) (A) (A) (A) (A) (A)
                 (A) (A) (A) (A) (A) (A) (A) (A) (A) (A) (A) (A)
                 (A) (A) (A) (A) (A)
 The electronic state is 1-A.
 Alpha  occ. eigenvalues --  -19.12750 -19.09698 -14.35495 -14.30067 -10.27897
 Alpha  occ. eigenvalues --  -10.23048 -10.21615 -10.21570 -10.21492 -10.20036
 Alpha  occ. eigenvalues --  -10.19470 -10.19248 -10.18657 -10.18329 -10.18087
 Alpha  occ. eigenvalues --  -10.18080 -10.17709 -10.17646 -10.17603 -10.17357
 Alpha  occ. eigenvalues --  -10.17149 -10.17081 -10.16710 -10.16693 -10.16243
 Alpha  occ. eigenvalues --   -1.04634  -1.03497  -0.96780  -0.93293  -0.85752
 Alpha  occ. eigenvalues --   -0.83249  -0.82022  -0.80400  -0.76791  -0.75022
 Alpha  occ. eigenvalues --   -0.74595  -0.73282  -0.71304  -0.69966  -0.66226
 Alpha  occ. eigenvalues --   -0.64645  -0.62998  -0.62685  -0.60418  -0.58100
 Alpha  occ. eigenvalues --   -0.57262  -0.55378  -0.55064  -0.51594  -0.50985
 Alpha  occ. eigenvalues --   -0.50480  -0.49563  -0.48548  -0.48215  -0.47280
 Alpha  occ. eigenvalues --   -0.46491  -0.46191  -0.45257  -0.44875  -0.44656
 Alpha  occ. eigenvalues --   -0.43906  -0.43138  -0.41495  -0.41264  -0.40326
 Alpha  occ. eigenvalues --   -0.39710  -0.39256  -0.38950  -0.38727  -0.37736
 Alpha  occ. eigenvalues --   -0.37204  -0.36769  -0.36646  -0.36064  -0.35628
 Alpha  occ. eigenvalues --   -0.35249  -0.34057  -0.33324  -0.32902  -0.32721
 Alpha  occ. eigenvalues --   -0.31600  -0.31125  -0.29788  -0.26693  -0.26152
 Alpha  occ. eigenvalues --   -0.25309  -0.24667  -0.21906  -0.20803
 Alpha virt. eigenvalues --   -0.02345  -0.01754  -0.01312   0.00396   0.01114
 Alpha virt. eigenvalues --    0.01226   0.01485   0.02431   0.02626   0.02837
 Alpha virt. eigenvalues --    0.03393   0.03459   0.03764   0.04573   0.04829
 Alpha virt. eigenvalues --    0.05350   0.05937   0.06088   0.06353   0.06446
 Alpha virt. eigenvalues --    0.07064   0.07494   0.07789   0.08492   0.08850
 Alpha virt. eigenvalues --    0.09126   0.09229   0.09461   0.09913   0.10285
 Alpha virt. eigenvalues --    0.10399   0.10888   0.11229   0.12149   0.12324
 Alpha virt. eigenvalues --    0.12610   0.12908   0.12987   0.13261   0.13648
 Alpha virt. eigenvalues --    0.13717   0.14332   0.14556   0.14676   0.14837
 Alpha virt. eigenvalues --    0.15243   0.15409   0.15925   0.16269   0.16490
 Alpha virt. eigenvalues --    0.16765   0.17041   0.17161   0.17806   0.17903
 Alpha virt. eigenvalues --    0.18047   0.18138   0.18537   0.18687   0.18960
 Alpha virt. eigenvalues --    0.19012   0.19174   0.19363   0.19626   0.19870
 Alpha virt. eigenvalues --    0.19942   0.20202   0.20446   0.20557   0.20776
 Alpha virt. eigenvalues --    0.20984   0.21229   0.21315   0.21598   0.21740
 Alpha virt. eigenvalues --    0.22407   0.22521   0.22910   0.23100   0.23228
 Alpha virt. eigenvalues --    0.23508   0.23540   0.23765   0.23926   0.24311
 Alpha virt. eigenvalues --    0.24674   0.24786   0.24962   0.25291   0.25315
 Alpha virt. eigenvalues --    0.25890   0.26194   0.26364   0.26559   0.26903
 Alpha virt. eigenvalues --    0.27210   0.27269   0.27389   0.27937   0.28036
 Alpha virt. eigenvalues --    0.28544   0.28655   0.28877   0.29016   0.29220
 Alpha virt. eigenvalues --    0.29656   0.30004   0.30294   0.30649   0.31029
 Alpha virt. eigenvalues --    0.31150   0.31396   0.31711   0.32031   0.32367
 Alpha virt. eigenvalues --    0.32804   0.33035   0.33363   0.33791   0.34016
 Alpha virt. eigenvalues --    0.34550   0.34850   0.35011   0.35502   0.35742
 Alpha virt. eigenvalues --    0.35854   0.36600   0.36874   0.37015   0.37416
 Alpha virt. eigenvalues --    0.37903   0.38962   0.39252   0.39668   0.39834
 Alpha virt. eigenvalues --    0.40289   0.40681   0.41206   0.41788   0.42374
 Alpha virt. eigenvalues --    0.42437   0.42874   0.43319   0.43499   0.44304
 Alpha virt. eigenvalues --    0.45061   0.45669   0.46258   0.47712   0.47819
 Alpha virt. eigenvalues --    0.48865   0.49275   0.50271   0.50399   0.50989
 Alpha virt. eigenvalues --    0.51718   0.52118   0.52416   0.52867   0.53328
 Alpha virt. eigenvalues --    0.53755   0.54329   0.54742   0.55450   0.55560
 Alpha virt. eigenvalues --    0.56550   0.56968   0.57396   0.57823   0.57926
 Alpha virt. eigenvalues --    0.58517   0.59190   0.59419   0.60368   0.60664
 Alpha virt. eigenvalues --    0.61005   0.61267   0.61443   0.61949   0.62774
 Alpha virt. eigenvalues --    0.63130   0.63213   0.63497   0.64056   0.64410
 Alpha virt. eigenvalues --    0.64594   0.64860   0.65541   0.65757   0.65832
 Alpha virt. eigenvalues --    0.66030   0.66754   0.67030   0.67266   0.67565
 Alpha virt. eigenvalues --    0.67856   0.68107   0.68654   0.68810   0.68960
 Alpha virt. eigenvalues --    0.69811   0.69941   0.70314   0.70681   0.71296
 Alpha virt. eigenvalues --    0.71646   0.72148   0.72543   0.72993   0.73125
 Alpha virt. eigenvalues --    0.73705   0.73826   0.74101   0.74390   0.75100
 Alpha virt. eigenvalues --    0.75443   0.76176   0.76503   0.76775   0.77055
 Alpha virt. eigenvalues --    0.77226   0.77919   0.78293   0.78625   0.79200
 Alpha virt. eigenvalues --    0.79425   0.79606   0.80378   0.80699   0.81070
 Alpha virt. eigenvalues --    0.81738   0.82128   0.82342   0.83850   0.84001
 Alpha virt. eigenvalues --    0.84036   0.84974   0.85773   0.86178   0.86920
 Alpha virt. eigenvalues --    0.87265   0.87950   0.88231   0.88809   0.89240
 Alpha virt. eigenvalues --    0.89878   0.90469   0.91561   0.92594   0.92898
 Alpha virt. eigenvalues --    0.93921   0.94571   0.95447   0.96410   0.97332
 Alpha virt. eigenvalues --    0.97514   0.98234   0.99212   0.99905   1.00358
 Alpha virt. eigenvalues --    1.01276   1.02137   1.02456   1.03604   1.04069
 Alpha virt. eigenvalues --    1.04652   1.05420   1.05765   1.07623   1.07920
 Alpha virt. eigenvalues --    1.08388   1.09098   1.10188   1.10731   1.11891
 Alpha virt. eigenvalues --    1.12271   1.12931   1.14104   1.14533   1.15597
 Alpha virt. eigenvalues --    1.16223   1.16318   1.16715   1.17820   1.18670
 Alpha virt. eigenvalues --    1.18961   1.19666   1.20319   1.20466   1.21166
 Alpha virt. eigenvalues --    1.21587   1.22306   1.23058   1.23647   1.23916
 Alpha virt. eigenvalues --    1.25102   1.25852   1.25924   1.27033   1.27433
 Alpha virt. eigenvalues --    1.27651   1.28366   1.29344   1.29561   1.30105
 Alpha virt. eigenvalues --    1.30326   1.31184   1.31819   1.32361   1.32469
 Alpha virt. eigenvalues --    1.33586   1.34173   1.34679   1.34940   1.35392
 Alpha virt. eigenvalues --    1.35913   1.36627   1.36688   1.37235   1.37747
 Alpha virt. eigenvalues --    1.39220   1.39729   1.40627   1.40889   1.41841
 Alpha virt. eigenvalues --    1.42121   1.42717   1.43138   1.44513   1.44956
 Alpha virt. eigenvalues --    1.45427   1.45834   1.46463   1.47164   1.47542
 Alpha virt. eigenvalues --    1.48177   1.48953   1.49748   1.50232   1.50608
 Alpha virt. eigenvalues --    1.51891   1.52493   1.52905   1.53526   1.54337
 Alpha virt. eigenvalues --    1.54589   1.54747   1.55716   1.55973   1.57357
 Alpha virt. eigenvalues --    1.57741   1.59283   1.60029   1.60496   1.60934
 Alpha virt. eigenvalues --    1.61404   1.61713   1.62914   1.63628   1.64346
 Alpha virt. eigenvalues --    1.64948   1.66137   1.66889   1.68834   1.69944
 Alpha virt. eigenvalues --    1.70280   1.70607   1.70966   1.72985   1.73487
 Alpha virt. eigenvalues --    1.74091   1.74817   1.75103   1.76800   1.77839
 Alpha virt. eigenvalues --    1.78951   1.79993   1.80851   1.81419   1.82423
 Alpha virt. eigenvalues --    1.83660   1.85570   1.85976   1.87754   1.88589
 Alpha virt. eigenvalues --    1.89305   1.89904   1.90044   1.90988   1.92102
 Alpha virt. eigenvalues --    1.92539   1.93029   1.93499   1.94519   1.95285
 Alpha virt. eigenvalues --    1.95745   1.97829   1.98759   2.00243   2.00693
 Alpha virt. eigenvalues --    2.01991   2.03264   2.03964   2.04397   2.05667
 Alpha virt. eigenvalues --    2.06604   2.07481   2.10041   2.11627   2.12344
 Alpha virt. eigenvalues --    2.12983   2.14872   2.15743   2.19589   2.20728
 Alpha virt. eigenvalues --    2.21448   2.22017   2.22926   2.23856   2.24542
 Alpha virt. eigenvalues --    2.26064   2.27288   2.27914   2.28779   2.28929
 Alpha virt. eigenvalues --    2.29649   2.30665   2.31331   2.33305   2.33834
 Alpha virt. eigenvalues --    2.34222   2.35177   2.36665   2.36752   2.37416
 Alpha virt. eigenvalues --    2.39533   2.40414   2.40810   2.40984   2.42287
 Alpha virt. eigenvalues --    2.43402   2.45045   2.47010   2.48276   2.48898
 Alpha virt. eigenvalues --    2.49821   2.50648   2.51839   2.53510   2.54869
 Alpha virt. eigenvalues --    2.56435   2.57999   2.58580   2.59951   2.62454
 Alpha virt. eigenvalues --    2.63323   2.65004   2.65399   2.66598   2.68055
 Alpha virt. eigenvalues --    2.68909   2.69825   2.70699   2.71916   2.72924
 Alpha virt. eigenvalues --    2.74134   2.77221   2.79381   2.80138   2.82516
 Alpha virt. eigenvalues --    2.85000   2.85750   2.86747   2.87458   2.87689
 Alpha virt. eigenvalues --    2.89503   2.89976   2.91268   2.92660   2.92913
 Alpha virt. eigenvalues --    2.94190   2.94852   2.95648   2.97194   2.98251
 Alpha virt. eigenvalues --    2.99690   3.00036   3.00995   3.02922   3.03355
 Alpha virt. eigenvalues --    3.04165   3.04590   3.05631   3.07182   3.08357
 Alpha virt. eigenvalues --    3.08463   3.08946   3.10786   3.11330   3.13251
 Alpha virt. eigenvalues --    3.15942   3.16252   3.16703   3.18335   3.19326
 Alpha virt. eigenvalues --    3.19895   3.21178   3.21673   3.23885   3.24551
 Alpha virt. eigenvalues --    3.25606   3.26208   3.28128   3.28992   3.29957
 Alpha virt. eigenvalues --    3.30959   3.32030   3.33597   3.34975   3.35678
 Alpha virt. eigenvalues --    3.36096   3.37331   3.37822   3.38406   3.39366
 Alpha virt. eigenvalues --    3.40696   3.41141   3.41547   3.41674   3.42592
 Alpha virt. eigenvalues --    3.43453   3.44854   3.45921   3.46848   3.47575
 Alpha virt. eigenvalues --    3.48198   3.49255   3.49873   3.50733   3.51324
 Alpha virt. eigenvalues --    3.52372   3.53196   3.54102   3.54421   3.54858
 Alpha virt. eigenvalues --    3.55135   3.56258   3.57249   3.57460   3.57469
 Alpha virt. eigenvalues --    3.58785   3.59175   3.59789   3.60045   3.61150
 Alpha virt. eigenvalues --    3.61599   3.61927   3.62441   3.62790   3.63764
 Alpha virt. eigenvalues --    3.64150   3.64954   3.65562   3.65939   3.66211
 Alpha virt. eigenvalues --    3.67626   3.68534   3.69182   3.69562   3.69969
 Alpha virt. eigenvalues --    3.70456   3.71607   3.72645   3.73808   3.74495
 Alpha virt. eigenvalues --    3.74665   3.75745   3.76279   3.76796   3.78200
 Alpha virt. eigenvalues --    3.78561   3.79656   3.80061   3.81081   3.81600
 Alpha virt. eigenvalues --    3.82085   3.82462   3.82830   3.83212   3.84453
 Alpha virt. eigenvalues --    3.85833   3.86172   3.86217   3.86722   3.87961
 Alpha virt. eigenvalues --    3.89068   3.89876   3.90251   3.91321   3.92483
 Alpha virt. eigenvalues --    3.93181   3.94103   3.94552   3.96127   3.96734
 Alpha virt. eigenvalues --    3.97803   3.99587   3.99971   4.01136   4.02034
 Alpha virt. eigenvalues --    4.02689   4.04119   4.05277   4.06832   4.07819
 Alpha virt. eigenvalues --    4.08719   4.09407   4.11227   4.12530   4.14277
 Alpha virt. eigenvalues --    4.14962   4.17780   4.19156   4.21317   4.22372
 Alpha virt. eigenvalues --    4.22759   4.24000   4.25486   4.27544   4.30195
 Alpha virt. eigenvalues --    4.30806   4.33581   4.34113   4.34931   4.36156
 Alpha virt. eigenvalues --    4.36782   4.37230   4.37962   4.40708   4.42720
 Alpha virt. eigenvalues --    4.43935   4.45363   4.48110   4.48852   4.51043
 Alpha virt. eigenvalues --    4.52527   4.54549   4.55284   4.56075   4.61028
 Alpha virt. eigenvalues --    4.62642   4.63427   4.69637   4.72510   4.80023
 Alpha virt. eigenvalues --    4.91525   4.93872   5.01008   5.09853   5.13695
 Alpha virt. eigenvalues --    5.17987   5.21519   5.24643   5.25021   5.28642
 Alpha virt. eigenvalues --    5.31363   5.34932   5.40039   5.42269   5.45554
 Alpha virt. eigenvalues --    5.48278   5.51039   5.55186   5.61737   5.70672
 Alpha virt. eigenvalues --    5.80078   5.85524   6.13263   6.85221   6.92547
 Alpha virt. eigenvalues --    7.05813   7.09101   7.10747   7.15028   7.28932
 Alpha virt. eigenvalues --    7.31156   7.39788   7.56659  23.71224  23.82959
 Alpha virt. eigenvalues --   23.91931  23.94472  23.95829  23.97298  23.99373
 Alpha virt. eigenvalues --   24.00880  24.03998  24.04960  24.05572  24.07255
 Alpha virt. eigenvalues --   24.12085  24.13194  24.14104  24.19330  24.23757
 Alpha virt. eigenvalues --   24.25923  24.28224  24.30145  24.33432  35.74350
 Alpha virt. eigenvalues --   35.78573  50.06311  50.10670
          Condensed to atoms (all electrons):
               1          2          3          4          5          6
     1  C    9.346693  -1.394473   0.074355   0.004915   0.140701  -0.062032
     2  C   -1.394473   6.269355   0.367513  -0.130307   0.037893   0.050230
     3  N    0.074355   0.367513   6.777710   0.165850   0.138485  -0.059274
     4  C    0.004915  -0.130307   0.165850   7.624523  -0.709337  -0.324603
     5  C    0.140701   0.037893   0.138485  -0.709337   7.879004  -1.559285
     6  C   -0.062032   0.050230  -0.059274  -0.324603  -1.559285   8.197672
     7  C    0.022481   0.001674   0.003938  -0.093244   0.160060  -0.121165
     8  O    0.000828  -0.003157  -0.001516  -0.018225   0.021550  -0.149059
     9  C   -0.176484   0.089369   0.023470  -0.057519   0.598467  -0.624562
    10  C    0.002536  -0.014165  -0.009749   0.038523  -0.146845   0.221097
    11  C    0.035902   0.008107   0.015778  -0.002859   0.058090  -0.067923
    12  O   -0.005514  -0.000518  -0.000084  -0.000029  -0.000284   0.001011
    13  N    0.108632  -0.029606   0.021316  -0.006901   0.003569  -0.046788
    14  C   -0.118943   0.042870   0.035161   0.044715   0.184967  -0.297080
    15  C    0.402339  -0.080215   0.101006   0.117663  -0.332866   0.145107
    16  C    0.001208  -0.084713  -0.012409  -0.074813  -0.635481   0.357130
    17  C   -0.124874   0.029421   0.058816  -0.504184  -0.005101  -0.089758
    18  C    0.461775  -0.296103   0.090221  -0.224192   0.210341   0.087526
    19  C   -2.332666   0.580657  -0.257765  -0.052050  -0.157786  -0.159368
    20  C   -0.752699   0.227776  -0.042954  -0.029163  -0.077003   0.010265
    21  C    0.044523  -0.114160  -0.035591   0.039202  -0.054307   0.025609
    22  C   -0.023071   0.022127   0.008861   0.008643   0.001878  -0.002817
    23  C    0.010048  -0.007242  -0.003987   0.001674  -0.006954   0.001944
    24  C    0.071013  -0.045022  -0.005406  -0.005811  -0.020393   0.012084
    25  C   -0.083513  -0.119744  -0.052000   0.033066  -0.165462   0.072499
    26  H    0.519271  -0.051247   0.013304   0.000397  -0.002433   0.002773
    27  H    0.367542  -0.037917  -0.001361  -0.000453  -0.001742   0.001115
    28  H   -0.119336   0.437268  -0.029231  -0.045258   0.007478   0.007337
    29  H    0.007177   0.415639  -0.073930   0.029952  -0.003812  -0.004577
    30  H    0.002664  -0.007222  -0.059484   0.465488  -0.033579  -0.082861
    31  H   -0.009455   0.021386  -0.061672   0.487839  -0.060100   0.036132
    32  H    0.002247  -0.001077   0.002389  -0.022731   0.026977   0.347832
    33  H   -0.000078  -0.000201   0.000005  -0.002232  -0.018487  -0.003667
    34  H   -0.000057   0.000633   0.000467  -0.007747  -0.017274  -0.069234
    35  H   -0.000383   0.000346  -0.000184  -0.002631  -0.016760   0.020465
    36  H   -0.000129  -0.000063   0.000004  -0.000106  -0.003742   0.002706
    37  H   -0.000316   0.000033   0.000056   0.000550  -0.005059   0.009551
    38  H   -0.015018  -0.022639  -0.007277   0.004802  -0.024547   0.014570
    39  H   -0.008336   0.000171  -0.003191   0.002140  -0.003364  -0.006102
    40  H    0.001764   0.001394   0.006011   0.013903  -0.135812  -0.008274
    41  H    0.004127   0.002319  -0.000483  -0.090744   0.062310   0.036380
    42  H   -0.000893  -0.003518   0.005033   0.032196  -0.002651  -0.014851
    43  H   -0.025557   0.032361  -0.065574   0.047732   0.002859  -0.002379
    44  H   -0.019377   0.003137  -0.000735  -0.000486  -0.000121  -0.000020
    45  H    0.000703  -0.000152  -0.000006  -0.000003   0.000003  -0.000001
    46  H    0.000051  -0.000003   0.000000  -0.000002  -0.000003   0.000000
    47  H   -0.000365   0.000044  -0.000000  -0.000008   0.000061   0.000002
               7          8          9         10         11         12
     1  C    0.022481   0.000828  -0.176484   0.002536   0.035902  -0.005514
     2  C    0.001674  -0.003157   0.089369  -0.014165   0.008107  -0.000518
     3  N    0.003938  -0.001516   0.023470  -0.009749   0.015778  -0.000084
     4  C   -0.093244  -0.018225  -0.057519   0.038523  -0.002859  -0.000029
     5  C    0.160060   0.021550   0.598467  -0.146845   0.058090  -0.000284
     6  C   -0.121165  -0.149059  -0.624562   0.221097  -0.067923   0.001011
     7  C    5.680509   0.179152  -0.109178  -0.160965   0.040338  -0.000822
     8  O    0.179152   8.219127   0.453575  -0.240426   0.021397  -0.000224
     9  C   -0.109178   0.453575   9.223254  -1.886415   0.537256  -0.051751
    10  C   -0.160965  -0.240426  -1.886415   8.778007  -1.698242   0.065510
    11  C    0.040338   0.021397   0.537256  -1.698242   6.749362   0.347752
    12  O   -0.000822  -0.000224  -0.051751   0.065510   0.347752   8.282643
    13  N   -0.004831  -0.004769   0.186562  -0.076627   0.495329   0.076402
    14  C    0.018733   0.067781   1.038107  -0.686088   0.068220  -0.011958
    15  C    0.083437  -0.069981  -2.045278   0.863807  -0.169863   0.032956
    16  C   -0.260059   0.008888  -1.157097   0.555986  -0.404156  -0.002216
    17  C   -0.076792   0.011461   0.571488  -0.210559   0.044185  -0.002383
    18  C    0.083337   0.001378  -0.582371   0.303371  -0.161037   0.006533
    19  C   -0.106611  -0.022224   0.463258   0.172074  -0.260512   0.001309
    20  C   -0.023046   0.004446   0.158334  -0.095475  -0.120905  -0.031077
    21  C   -0.008242   0.000620  -0.109418   0.086067  -0.038250   0.002021
    22  C    0.000173   0.000044  -0.008773   0.025197   0.027336   0.000840
    23  C   -0.000504  -0.000023   0.003634  -0.074569  -0.052348   0.008296
    24  C   -0.001348  -0.000013   0.088682  -0.243526   0.141887   0.102148
    25  C   -0.019722   0.011410  -0.483371   0.028619  -0.041876  -0.271565
    26  H   -0.000224   0.000178  -0.000707   0.001303   0.001464   0.000039
    27  H   -0.000207  -0.000010   0.001062  -0.000893  -0.000144   0.000000
    28  H   -0.005285  -0.000699   0.011028  -0.002592   0.003234  -0.000001
    29  H    0.000276   0.000003  -0.000464  -0.000011   0.000016   0.000000
    30  H    0.000284   0.000214   0.002841  -0.000585   0.000081   0.000000
    31  H    0.002016  -0.000243  -0.000175   0.000450   0.000005  -0.000000
    32  H   -0.040981   0.004275   0.007686   0.000614   0.000376  -0.000000
    33  H    0.387947  -0.047891  -0.012714   0.008025  -0.001229  -0.000000
    34  H    0.467491  -0.057393  -0.010297   0.013171   0.008881   0.000002
    35  H    0.014501  -0.075322   0.374174  -0.038842   0.019507  -0.000268
    36  H   -0.001077   0.006129  -0.007087   0.457023  -0.092353  -0.000959
    37  H   -0.004688  -0.015035  -0.116561   0.504854  -0.092194   0.001114
    38  H   -0.004752   0.005165  -0.050481   0.016575  -0.017089   0.000270
    39  H   -0.007192   0.008100  -0.127207   0.059163  -0.019023  -0.000869
    40  H   -0.016222  -0.005479  -0.006157   0.005664  -0.003100   0.000009
    41  H   -0.000403   0.000145  -0.002669   0.000403  -0.000236   0.000003
    42  H   -0.000081   0.000110   0.013974  -0.002323   0.003341   0.000025
    43  H    0.000190  -0.000004  -0.001049   0.000313  -0.000007  -0.000006
    44  H   -0.000000   0.000000   0.000330   0.000015  -0.000324  -0.000004
    45  H    0.000000  -0.000000   0.000012  -0.000035  -0.000095   0.000009
    46  H   -0.000000   0.000000  -0.000047   0.000252   0.001128  -0.000079
    47  H    0.000008  -0.000004   0.002264  -0.001533   0.007700  -0.004480
              13         14         15         16         17         18
     1  C    0.108632  -0.118943   0.402339   0.001208  -0.124874   0.461775
     2  C   -0.029606   0.042870  -0.080215  -0.084713   0.029421  -0.296103
     3  N    0.021316   0.035161   0.101006  -0.012409   0.058816   0.090221
     4  C   -0.006901   0.044715   0.117663  -0.074813  -0.504184  -0.224192
     5  C    0.003569   0.184967  -0.332866  -0.635481  -0.005101   0.210341
     6  C   -0.046788  -0.297080   0.145107   0.357130  -0.089758   0.087526
     7  C   -0.004831   0.018733   0.083437  -0.260059  -0.076792   0.083337
     8  O   -0.004769   0.067781  -0.069981   0.008888   0.011461   0.001378
     9  C    0.186562   1.038107  -2.045278  -1.157097   0.571488  -0.582371
    10  C   -0.076627  -0.686088   0.863807   0.555986  -0.210559   0.303371
    11  C    0.495329   0.068220  -0.169863  -0.404156   0.044185  -0.161037
    12  O    0.076402  -0.011958   0.032956  -0.002216  -0.002383   0.006533
    13  N    6.932126   0.077856  -0.042880   0.065440  -0.019944  -0.111479
    14  C    0.077856   7.740908  -1.047966  -0.977153   0.088501  -0.617728
    15  C   -0.042880  -1.047966   9.630869  -0.084652  -0.869172   1.048019
    16  C    0.065440  -0.977153  -0.084652   8.321662  -0.129678  -0.374792
    17  C   -0.019944   0.088501  -0.869172  -0.129678   7.256235  -0.652707
    18  C   -0.111479  -0.617728   1.048019  -0.374792  -0.652707   8.417160
    19  C   -0.169022   1.040059  -1.701477  -0.061404   0.330158  -1.401584
    20  C   -0.198967   0.494082  -0.763677  -0.012545   0.169865  -0.412423
    21  C   -0.036397  -0.548774  -0.088314   0.181958   0.073532  -0.103637
    22  C   -0.025567  -0.048325  -0.014497  -0.001868   0.001350   0.068531
    23  C    0.023496  -0.002637  -0.000181   0.018755   0.002220  -0.085384
    24  C    0.075485  -0.391967   0.129734   0.087232   0.080776  -0.103760
    25  C   -0.021652  -0.469073   0.168902   0.390167  -0.104510  -0.222443
    26  H    0.008525  -0.004008   0.003102   0.002557   0.003080   0.000623
    27  H    0.000656   0.040081   0.009366   0.003391  -0.006854  -0.060449
    28  H    0.000451   0.015492  -0.003010   0.021425   0.004731  -0.051072
    29  H    0.000522   0.000891   0.002947  -0.006920  -0.006483   0.022518
    30  H    0.000039   0.002300   0.004742   0.012946   0.012253   0.014631
    31  H   -0.000094   0.000301  -0.004550  -0.056783  -0.029796   0.035012
    32  H    0.000117   0.000522  -0.004805   0.002104   0.000506   0.003026
    33  H    0.000000  -0.000498   0.006374   0.012755  -0.000931   0.001267
    34  H   -0.000621  -0.004807   0.001763  -0.006752  -0.002176   0.004379
    35  H   -0.006448   0.013009  -0.001256   0.000272  -0.005731   0.008528
    36  H    0.002025  -0.009589  -0.009051   0.005454   0.001253  -0.000964
    37  H   -0.015990   0.004942   0.065756   0.010178  -0.001295  -0.000023
    38  H   -0.056865   0.378623  -0.077395   0.027134   0.013720   0.019609
    39  H   -0.007896   0.006203   0.453852  -0.010730  -0.056128   0.029828
    40  H   -0.001541  -0.000020   0.048492   0.429956  -0.005072   0.006408
    41  H    0.001318  -0.001041   0.006882  -0.098461   0.466561  -0.026957
    42  H   -0.003413   0.014862   0.006833  -0.077099   0.424451  -0.055406
    43  H    0.002250   0.015066   0.007704   0.008733  -0.089757   0.490617
    44  H   -0.000064  -0.000441  -0.000659   0.001326   0.001416  -0.021617
    45  H    0.000462   0.000757   0.000067  -0.000032   0.000230   0.000192
    46  H   -0.000356  -0.000854  -0.000171   0.000019  -0.000037  -0.000108
    47  H    0.000239   0.006406  -0.001469  -0.000379   0.000145   0.000144
              19         20         21         22         23         24
     1  C   -2.332666  -0.752699   0.044523  -0.023071   0.010048   0.071013
     2  C    0.580657   0.227776  -0.114160   0.022127  -0.007242  -0.045022
     3  N   -0.257765  -0.042954  -0.035591   0.008861  -0.003987  -0.005406
     4  C   -0.052050  -0.029163   0.039202   0.008643   0.001674  -0.005811
     5  C   -0.157786  -0.077003  -0.054307   0.001878  -0.006954  -0.020393
     6  C   -0.159368   0.010265   0.025609  -0.002817   0.001944   0.012084
     7  C   -0.106611  -0.023046  -0.008242   0.000173  -0.000504  -0.001348
     8  O   -0.022224   0.004446   0.000620   0.000044  -0.000023  -0.000013
     9  C    0.463258   0.158334  -0.109418  -0.008773   0.003634   0.088682
    10  C    0.172074  -0.095475   0.086067   0.025197  -0.074569  -0.243526
    11  C   -0.260512  -0.120905  -0.038250   0.027336  -0.052348   0.141887
    12  O    0.001309  -0.031077   0.002021   0.000840   0.008296   0.102148
    13  N   -0.169022  -0.198967  -0.036397  -0.025567   0.023496   0.075485
    14  C    1.040059   0.494082  -0.548774  -0.048325  -0.002637  -0.391967
    15  C   -1.701477  -0.763677  -0.088314  -0.014497  -0.000181   0.129734
    16  C   -0.061404  -0.012545   0.181958  -0.001868   0.018755   0.087232
    17  C    0.330158   0.169865   0.073532   0.001350   0.002220   0.080776
    18  C   -1.401584  -0.412423  -0.103637   0.068531  -0.085384  -0.103760
    19  C   11.697145   1.538140  -1.335635   0.009106  -0.367698  -0.941219
    20  C    1.538140   7.839914  -1.113348  -0.704033  -0.156801  -0.866607
    21  C   -1.335635  -1.113348   7.297134   0.364933   0.281288   0.716616
    22  C    0.009106  -0.704033   0.364933   6.126551   0.196018  -0.131194
    23  C   -0.367698  -0.156801   0.281288   0.196018   6.307329   0.862283
    24  C   -0.941219  -0.866607   0.716616  -0.131194   0.862283   6.818521
    25  C   -0.632427   0.360767   0.551772   0.132474  -1.011328  -0.408189
    26  H   -0.142179  -0.010982   0.012795   0.003416  -0.001817   0.001658
    27  H    0.004803  -0.011620   0.008836  -0.008669   0.005273   0.005034
    28  H    0.088930   0.003793   0.001293  -0.000380   0.000335   0.001336
    29  H   -0.043189  -0.007738  -0.001368  -0.000168  -0.000084   0.000101
    30  H   -0.005602  -0.000157  -0.000569  -0.000024  -0.000008   0.000003
    31  H   -0.046415  -0.001870   0.000911   0.000244  -0.000012  -0.000135
    32  H   -0.004920  -0.000394  -0.000018   0.000004  -0.000002  -0.000004
    33  H   -0.000595   0.000096   0.000017   0.000001  -0.000001  -0.000022
    34  H   -0.008378  -0.000786  -0.000068  -0.000008   0.000010   0.000135
    35  H   -0.014298   0.000332  -0.000038   0.000072  -0.000227  -0.000943
    36  H   -0.002629  -0.000382  -0.000084  -0.000060   0.000989   0.006039
    37  H    0.004168   0.001039   0.000683   0.000021  -0.000180  -0.000842
[...]
     5  C   -0.165462  -0.002433  -0.001742   0.007478  -0.003812  -0.033579
     6  C    0.072499   0.002773   0.001115   0.007337  -0.004577  -0.082861
     7  C   -0.019722  -0.000224  -0.000207  -0.005285   0.000276   0.000284
     8  O    0.011410   0.000178  -0.000010  -0.000699   0.000003   0.000214
     9  C   -0.483371  -0.000707   0.001062   0.011028  -0.000464   0.002841
    10  C    0.028619   0.001303  -0.000893  -0.002592  -0.000011  -0.000585
    11  C   -0.041876   0.001464  -0.000144   0.003234   0.000016   0.000081
    12  O   -0.271565   0.000039   0.000000  -0.000001   0.000000   0.000000
    13  N   -0.021652   0.008525   0.000656   0.000451   0.000522   0.000039
    14  C   -0.469073  -0.004008   0.040081   0.015492   0.000891   0.002300
    15  C    0.168902   0.003102   0.009366  -0.003010   0.002947   0.004742
    16  C    0.390167   0.002557   0.003391   0.021425  -0.006920   0.012946
    17  C   -0.104510   0.003080  -0.006854   0.004731  -0.006483   0.012253
    18  C   -0.222443   0.000623  -0.060449  -0.051072   0.022518   0.014631
    19  C   -0.632427  -0.142179   0.004803   0.088930  -0.043189  -0.005602
    20  C    0.360767  -0.010982  -0.011620   0.003793  -0.007738  -0.000157
    21  C    0.551772   0.012795   0.008836   0.001293  -0.001368  -0.000569
    22  C    0.132474   0.003416  -0.008669  -0.000380  -0.000168  -0.000024
    23  C   -1.011328  -0.001817   0.005273   0.000335  -0.000084  -0.000008
    24  C   -0.408189   0.001658   0.005034   0.001336   0.000101   0.000003
    25  C    7.981894  -0.004949   0.025785   0.008522  -0.000767  -0.000508
    26  H   -0.004949   0.548194  -0.032244  -0.007053   0.002535  -0.000055
    27  H    0.025785  -0.032244   0.558172   0.006840  -0.009987  -0.000017
    28  H    0.008522  -0.007053   0.006840   0.582202  -0.057006  -0.002601
    29  H   -0.000767   0.002535  -0.009987  -0.057006   0.608613   0.002165
    30  H   -0.000508  -0.000055  -0.000017  -0.002601   0.002165   0.555676
    31  H   -0.001833   0.000018   0.000074  -0.000492   0.000598  -0.035280
    32  H   -0.000379  -0.000000   0.000000  -0.000765   0.000121   0.006132
    33  H    0.000087   0.000000   0.000000  -0.000037   0.000001   0.000005
    34  H    0.000583   0.000001  -0.000000   0.000018  -0.000000   0.000008
    35  H    0.002271   0.000004  -0.000001  -0.000010   0.000000   0.000002
    36  H   -0.007755   0.000002   0.000000  -0.000001  -0.000000  -0.000000
    37  H   -0.006610   0.000018   0.000001   0.000020   0.000000   0.000001
    38  H    0.011229   0.003420   0.000375   0.000235  -0.000332   0.000018
    39  H   -0.005106   0.000013   0.000013  -0.000053   0.000002   0.000023
    40  H   -0.003545  -0.000002  -0.000005   0.000060   0.000000  -0.000409
    41  H   -0.000429   0.000027   0.000025   0.000018  -0.000026   0.000607
    42  H   -0.006291  -0.000017   0.000042   0.000016   0.000028  -0.000086
    43  H   -0.006093   0.000496  -0.000555  -0.001998   0.002110  -0.000169
    44  H    0.008326   0.000035   0.000669  -0.000007   0.000041  -0.000000
    45  H    0.007520  -0.000000   0.000024   0.000000   0.000000  -0.000000
    46  H   -0.011738   0.000000  -0.000000   0.000000  -0.000000   0.000000
    47  H   -0.045926   0.000000   0.000001   0.000000   0.000000  -0.000000
              31         32         33         34         35         36
     1  C   -0.009455   0.002247  -0.000078  -0.000057  -0.000383  -0.000129
     2  C    0.021386  -0.001077  -0.000201   0.000633   0.000346  -0.000063
     3  N   -0.061672   0.002389   0.000005   0.000467  -0.000184   0.000004
     4  C    0.487839  -0.022731  -0.002232  -0.007747  -0.002631  -0.000106
     5  C   -0.060100   0.026977  -0.018487  -0.017274  -0.016760  -0.003742
     6  C    0.036132   0.347832  -0.003667  -0.069234   0.020465   0.002706
     7  C    0.002016  -0.040981   0.387947   0.467491   0.014501  -0.001077
     8  O   -0.000243   0.004275  -0.047891  -0.057393  -0.075322   0.006129
     9  C   -0.000175   0.007686  -0.012714  -0.010297   0.374174  -0.007087
    10  C    0.000450   0.000614   0.008025   0.013171  -0.038842   0.457023
    11  C    0.000005   0.000376  -0.001229   0.008881   0.019507  -0.092353
    12  O   -0.000000  -0.000000  -0.000000   0.000002  -0.000268  -0.000959
    13  N   -0.000094   0.000117   0.000000  -0.000621  -0.006448   0.002025
    14  C    0.000301   0.000522  -0.000498  -0.004807   0.013009  -0.009589
    15  C   -0.004550  -0.004805   0.006374   0.001763  -0.001256  -0.009051
    16  C   -0.056783   0.002104   0.012755  -0.006752   0.000272   0.005454
    17  C   -0.029796   0.000506  -0.000931  -0.002176  -0.005731   0.001253
    18  C    0.035012   0.003026   0.001267   0.004379   0.008528  -0.000964
    19  C   -0.046415  -0.004920  -0.000595  -0.008378  -0.014298  -0.002629
    20  C   -0.001870  -0.000394   0.000096  -0.000786   0.000332  -0.000382
    21  C    0.000911  -0.000018   0.000017  -0.000068  -0.000038  -0.000084
    22  C    0.000244   0.000004   0.000001  -0.000008   0.000072  -0.000060
    23  C   -0.000012  -0.000002  -0.000001   0.000010  -0.000227   0.000989
    24  C   -0.000135  -0.000004  -0.000022   0.000135  -0.000943   0.006039
    25  C   -0.001833  -0.000379   0.000087   0.000583   0.002271  -0.007755
    26  H    0.000018  -0.000000   0.000000   0.000001   0.000004   0.000002
    27  H    0.000074   0.000000   0.000000  -0.000000  -0.000001   0.000000
    28  H   -0.000492  -0.000765  -0.000037   0.000018  -0.000010  -0.000001
    29  H    0.000598   0.000121   0.000001  -0.000000   0.000000  -0.000000
    30  H   -0.035280   0.006132   0.000005   0.000008   0.000002  -0.000000
    31  H    0.585883   0.000910   0.000010   0.000149   0.000004  -0.000000
    32  H    0.000910   0.573343  -0.006980   0.005634   0.000007  -0.000001
    33  H    0.000010  -0.006980   0.578933  -0.032019   0.001005   0.000026
    34  H    0.000149   0.005634  -0.032019   0.575491   0.008982   0.000116
    35  H    0.000004   0.000007   0.001005   0.008982   0.598838  -0.009756
    36  H   -0.000000  -0.000001   0.000026   0.000116  -0.009756   0.533207
    37  H   -0.000000  -0.000013  -0.000017   0.000127   0.004799  -0.031847
    38  H   -0.000039   0.000210   0.000009   0.000060  -0.000386   0.000173
    39  H    0.000034   0.000073   0.000032  -0.000250  -0.010630  -0.000028
    40  H    0.001029  -0.000400   0.000005   0.002979   0.001430  -0.000021
    41  H   -0.005255  -0.000012   0.000001  -0.000000   0.000031  -0.000001
    42  H    0.000756   0.000025  -0.000001   0.000013   0.000074  -0.000002
    43  H    0.001757   0.000007   0.000000  -0.000002  -0.000003  -0.000000
    44  H    0.000001  -0.000000  -0.000000  -0.000000  -0.000000   0.000000
    45  H   -0.000000  -0.000000  -0.000000   0.000000  -0.000000  -0.000000
    46  H    0.000000   0.000000  -0.000000  -0.000000  -0.000000  -0.000000
    47  H   -0.000000  -0.000000  -0.000000   0.000000  -0.000001   0.000059
              37         38         39         40         41         42
     1  C   -0.000316  -0.015018  -0.008336   0.001764   0.004127  -0.000893
     2  C    0.000033  -0.022639   0.000171   0.001394   0.002319  -0.003518
     3  N    0.000056  -0.007277  -0.003191   0.006011  -0.000483   0.005033
     4  C    0.000550   0.004802   0.002140   0.013903  -0.090744   0.032196
     5  C   -0.005059  -0.024547  -0.003364  -0.135812   0.062310  -0.002651
     6  C    0.009551   0.014570  -0.006102  -0.008274   0.036380  -0.014851
     7  C   -0.004688  -0.004752  -0.007192  -0.016222  -0.000403  -0.000081
     8  O   -0.015035   0.005165   0.008100  -0.005479   0.000145   0.000110
     9  C   -0.116561  -0.050481  -0.127207  -0.006157  -0.002669   0.013974
    10  C    0.504854   0.016575   0.059163   0.005664   0.000403  -0.002323
    11  C   -0.092194  -0.017089  -0.019023  -0.003100  -0.000236   0.003341
    12  O    0.001114   0.000270  -0.000869   0.000009   0.000003   0.000025
    13  N   -0.015990  -0.056865  -0.007896  -0.001541   0.001318  -0.003413
    14  C    0.004942   0.378623   0.006203  -0.000020  -0.001041   0.014862
    15  C    0.065756  -0.077395   0.453852   0.048492   0.006882   0.006833
    16  C    0.010178   0.027134  -0.010730   0.429956  -0.098461  -0.077099
    17  C   -0.001295   0.013720  -0.056128  -0.005072   0.466561   0.424451
    18  C   -0.000023   0.019609   0.029828   0.006408  -0.026957  -0.055406
    19  C    0.004168   0.078664   0.034122  -0.012943  -0.011030   0.004707
    20  C    0.001039   0.026104   0.004768  -0.001606  -0.004669   0.007083
    21  C    0.000683   0.016941   0.002927  -0.000995   0.003494   0.001772
    22  C    0.000021   0.002353   0.003445   0.000059   0.001033   0.000131
    23  C   -0.000180  -0.001342  -0.002754  -0.000131  -0.000108  -0.000081
    24  C   -0.000842  -0.001637  -0.021755  -0.001413  -0.000191   0.002027
    25  C   -0.006610   0.011229  -0.005106  -0.003545  -0.000429  -0.006291
    26  H    0.000018   0.003420   0.000013  -0.000002   0.000027  -0.000017
    27  H    0.000001   0.000375   0.000013  -0.000005   0.000025   0.000042
    28  H    0.000020   0.000235  -0.000053   0.000060   0.000018   0.000016
    29  H    0.000000  -0.000332   0.000002   0.000000  -0.000026   0.000028
    30  H    0.000001   0.000018   0.000023  -0.000409   0.000607  -0.000086
    31  H   -0.000000  -0.000039   0.000034   0.001029  -0.005255   0.000756
    32  H   -0.000013   0.000210   0.000073  -0.000400  -0.000012   0.000025
    33  H   -0.000017   0.000009   0.000032   0.000005   0.000001  -0.000001
    34  H    0.000127   0.000060  -0.000250   0.002979  -0.000000   0.000013
    35  H    0.004799  -0.000386  -0.010630   0.001430   0.000031   0.000074
    36  H   -0.031847   0.000173  -0.000028  -0.000021  -0.000001  -0.000002
    37  H    0.506906  -0.001941  -0.000795  -0.000026  -0.000001  -0.000001
    38  H   -0.001941   0.515352   0.005601  -0.000176   0.000148  -0.000369
    39  H   -0.000795   0.005601   0.568609  -0.009955   0.000690   0.002186
    40  H   -0.000026  -0.000176  -0.009955   0.583858  -0.008425  -0.004126
    41  H   -0.000001   0.000148   0.000690  -0.008425   0.565731  -0.036418
    42  H   -0.000001  -0.000369   0.002186  -0.004126  -0.036418   0.544498
    43  H    0.000001  -0.000266  -0.000005  -0.000411  -0.005712  -0.001506
    44  H   -0.000000  -0.000013   0.000004  -0.000000   0.000014   0.000045
    45  H    0.000000  -0.000000  -0.000001   0.000000  -0.000000  -0.000001
    46  H    0.000000  -0.000000  -0.000000  -0.000000  -0.000000   0.000000
    47  H   -0.000014   0.000004   0.000010   0.000000   0.000000  -0.000002
              43         44         45         46         47
     1  C   -0.025557  -0.019377   0.000703   0.000051  -0.000365
     2  C    0.032361   0.003137  -0.000152  -0.000003   0.000044
     3  N   -0.065574  -0.000735  -0.000006   0.000000  -0.000000
     4  C    0.047732  -0.000486  -0.000003  -0.000002  -0.000008
     5  C    0.002859  -0.000121   0.000003  -0.000003   0.000061
     6  C   -0.002379  -0.000020  -0.000001   0.000000   0.000002
     7  C    0.000190  -0.000000   0.000000  -0.000000   0.000008
     8  O   -0.000004   0.000000  -0.000000   0.000000  -0.000004
     9  C   -0.001049   0.000330   0.000012  -0.000047   0.002264
    10  C    0.000313   0.000015  -0.000035   0.000252  -0.001533
    11  C   -0.000007  -0.000324  -0.000095   0.001128   0.007700
    12  O   -0.000006  -0.000004   0.000009  -0.000079  -0.004480
    13  N    0.002250  -0.000064   0.000462  -0.000356   0.000239
    14  C    0.015066  -0.000441   0.000757  -0.000854   0.006406
    15  C    0.007704  -0.000659   0.000067  -0.000171  -0.001469
    16  C    0.008733   0.001326  -0.000032   0.000019  -0.000379
    17  C   -0.089757   0.001416   0.000230  -0.000037   0.000145
    18  C    0.490617  -0.021617   0.000192  -0.000108   0.000144
    19  C   -0.090477   0.017875   0.004938  -0.001254   0.006550
    20  C   -0.033343  -0.005988   0.004974   0.001299  -0.003562
    21  C   -0.020478   0.400068  -0.037562   0.010140  -0.000673
    22  C   -0.001183  -0.056091   0.426580  -0.064210   0.025086
    23  C   -0.000652   0.009776  -0.064783   0.435648  -0.038112
    24  C   -0.001073   0.001608   0.000393  -0.027730   0.393999
    25  C   -0.006093   0.008326   0.007520  -0.011738  -0.045926
    26  H    0.000496   0.000035  -0.000000   0.000000   0.000000
    27  H   -0.000555   0.000669   0.000024  -0.000000   0.000001
    28  H   -0.001998  -0.000007   0.000000   0.000000   0.000000
    29  H    0.002110   0.000041   0.000000  -0.000000   0.000000
    30  H   -0.000169  -0.000000  -0.000000   0.000000  -0.000000
    31  H    0.001757   0.000001  -0.000000   0.000000  -0.000000
    32  H    0.000007  -0.000000  -0.000000   0.000000  -0.000000
    33  H    0.000000  -0.000000  -0.000000  -0.000000  -0.000000
    34  H   -0.000002  -0.000000   0.000000  -0.000000   0.000000
    35  H   -0.000003  -0.000000  -0.000000  -0.000000  -0.000001
    36  H   -0.000000   0.000000  -0.000000  -0.000000   0.000059
    37  H    0.000001  -0.000000   0.000000   0.000000  -0.000014
    38  H   -0.000266  -0.000013  -0.000000  -0.000000   0.000004
    39  H   -0.000005   0.000004  -0.000001  -0.000000   0.000010
    40  H   -0.000411  -0.000000   0.000000  -0.000000   0.000000
    41  H   -0.005712   0.000014  -0.000000  -0.000000   0.000000
    42  H   -0.001506   0.000045  -0.000001   0.000000  -0.000002
    43  H    0.634239   0.004540   0.000015  -0.000001   0.000000
    44  H    0.004540   0.537023  -0.004879  -0.000403   0.000093
    45  H    0.000015  -0.004879   0.553771  -0.005133  -0.000334
    46  H   -0.000001  -0.000403  -0.005133   0.554853  -0.004748
    47  H    0.000000   0.000093  -0.000334  -0.004748   0.508659
 Mulliken charges:
               1
     1  C   -0.359927
     2  C   -0.198261
     3  N   -0.125888
     4  C   -0.758137
     5  C    0.665897
     6  C    0.094639
     7  C   -0.078903
     8  O   -0.314279
     9  C   -0.220994
    10  C   -0.618154
    11  C    0.607095
    12  O   -0.543800
    13  N   -0.194099
    14  C   -0.202467
    15  C    0.071664
    16  C    0.003518
    17  C   -0.652434
    18  C    0.151262
    19  C    0.266695
    20  C    0.630741
    21  C   -0.477227
    22  C   -0.365568
    23  C   -0.289066
    24  C   -0.378597
    25  C    0.412912
    26  H    0.128669
    27  H    0.133949
    28  H    0.124823
    29  H    0.120607
    30  H    0.146094
    31  H    0.138678
    32  H    0.098342
    33  H    0.130997
    34  H    0.126774
    35  H    0.115466
    36  H    0.162478
    37  H    0.178631
    38  H    0.141201
    39  H    0.119361
    40  H    0.123248
    41  H    0.141002
    42  H    0.144908
    43  H    0.097270
    44  H    0.124889
    45  H    0.112369
    46  H    0.113486
    47  H    0.150136
 Sum of Mulliken charges =  -0.00000
 Mulliken charges with hydrogens summed into heavy atoms:
               1
     1  C   -0.097309
     2  C    0.047168
     3  N   -0.125888
     4  C   -0.473364
     5  C    0.665897
     6  C    0.192982
     7  C    0.178869
     8  O   -0.314279
     9  C   -0.105528
    10  C   -0.277045
    11  C    0.607095
    12  O   -0.543800
    13  N   -0.194099
    14  C   -0.061266
    15  C    0.191025
    16  C    0.126765
    17  C   -0.366524
    18  C    0.248532
    19  C    0.266695
    20  C    0.630741
    21  C   -0.352338
    22  C   -0.253199
    23  C   -0.175579
    24  C   -0.228461
    25  C    0.412912
 Electronic spatial extent (au):  <R**2>=           6683.2623
 Charge=             -0.0000 electrons
 Dipole moment (field-independent basis, Debye):
    X=             -4.0583    Y=             -3.5434    Z=             -1.5253  Tot=              5.5993
 Quadrupole moment (field-independent basis, Debye-Ang):
   XX=           -146.4062   YY=           -161.3852   ZZ=           -144.2047
   XY=            -12.7194   XZ=              0.4981   YZ=             -2.8868
 Traceless Quadrupole moment (field-independent basis, Debye-Ang):
   XX=              4.2592   YY=            -10.7198   ZZ=              6.4607
   XY=            -12.7194   XZ=              0.4981   YZ=             -2.8868
 Octapole moment (field-independent basis, Debye-Ang**2):
  XXX=            -23.9448  YYY=            -29.5392  ZZZ=              4.7141  XYY=            -31.0575
  XXY=            -23.1324  XXZ=             -9.8779  XZZ=            -20.8099  YZZ=              2.3155
  YYZ=            -10.6524  XYZ=              9.1351
 Hexadecapole moment (field-independent basis, Debye-Ang**3):
 XXXX=          -4934.0527 YYYY=          -3359.2814 ZZZZ=           -816.1175 XXXY=            -68.7673
 XXXZ=           -109.2153 YYYX=           -206.5443 YYYZ=            -11.5164 ZZZX=             19.1471
 ZZZY=             -2.0341 XXYY=          -1445.7460 XXZZ=          -1057.5506 YYZZ=           -631.4413
 XXYZ=             -6.0778 YYXZ=              1.9490 ZZXY=             11.1096
 N-N= 2.378091374799D+03 E-N=-7.254066225479D+03  KE= 1.068807346436D+03
 Unable to Open any file for archive entry.
 1\1\GINC-NODE11\SP\RB3LYP\6-311+G(2d,p)\C21H22N2O2\SVSS\06-Sep-2022\0\
 \# B3LYP/6-311+G(2d,p) scrf=(solvent=chloroform,smd) nmr=giao\\Strychn
 ine_rdkit_conf_1_SP\\0,1\C,0,0.388929,-1.842547,1.735569\C,0,-1.076906
 ,-2.283961,1.718658\N,0,-1.356134,-2.619233,0.308087\C,0,-2.713709,-2.
 257889,-0.135051\C,0,-2.821257,-0.778419,-0.445325\C,0,-3.732174,0.027
 429,0.117211\C,0,-3.73467,1.524579,-0.074701\O,0,-2.556974,2.143968,0.
 459218\C,0,-1.422712,2.198141,-0.40847\C,0,-0.379091,3.059328,0.354762
 \C,0,1.065109,2.564048,0.336081\O,0,2.016594,3.330708,0.214715\N,0,1.2
 08418,1.200536,0.491907\C,0,0.004543,0.330808,0.424442\C,0,-0.815313,0
 .828282,-0.781697\C,0,-1.736023,-0.253013,-1.386191\C,0,-0.816374,-1.4
 14609,-1.809432\C,0,-0.258919,-2.082873,-0.55012\C,0,0.56526,-1.129899
 ,0.368909\C,0,2.020778,-0.905548,0.016208\C,0,3.0005,-1.831768,-0.3302
 29\C,0,4.316924,-1.396252,-0.533989\C,0,4.640239,-0.044979,-0.376885\C
 ,0,3.670154,0.900505,-0.022286\C,0,2.360996,0.448882,0.163886\H,0,0.63
 3989,-1.195182,2.583223\H,0,1.05591,-2.710766,1.774221\H,0,-1.725803,-
 1.465261,2.070441\H,0,-1.259109,-3.148369,2.368174\H,0,-3.419886,-2.54
 4582,0.649572\H,0,-2.970253,-2.858766,-1.017138\H,0,-4.476774,-0.39179
 ,0.792387\H,0,-4.569572,1.978616,0.465204\H,0,-3.841127,1.794914,-1.13
 8176\H,0,-1.723249,2.708633,-1.337235\H,0,-0.363313,4.089479,-0.003781
 \H,0,-0.707774,3.089123,1.400955\H,0,-0.591853,0.466023,1.332648\H,0,-
 0.087981,1.055401,-1.575416\H,0,-2.219541,0.176455,-2.276157\H,0,-1.35
 5573,-2.150004,-2.415401\H,0,0.010009,-1.045999,-2.427063\H,0,0.397904
 ,-2.91296,-0.843755\H,0,2.752671,-2.884267,-0.439677\H,0,5.086749,-2.1
 11251,-0.808147\H,0,5.663633,0.284502,-0.531663\H,0,3.910291,1.948043,
 0.09727\\Version=AS64L-G16RevC.01\State=1-A\HF=-1073.7352436\RMSD=8.50
 6e-09\Dipole=-1.5966641,-1.3940793,-0.6001097\Quadrupole=3.1665781,-7.
 9699299,4.8033517,-9.4565564,0.3703299,-2.1463004\PG=C01 [X(C21H22N2O2
 )]\\@
 The archive entry for this job was punched.


 TERENCE, THIS IS STUPID STUFF:
 YOU EAT YOUR VICTUALS FAST ENOUGH;
 THERE CAN'T BE MUCH AMISS, 'TIS CLEAR
 TO SEE THE RATE YOU DRINK YOUR BEER.
 BUT OH, GOOD LORD, THE VERSE YOU MAKE,
 IT GIVES A CHAP THE BELLY-ACHE.
 THE COW, THE OLD COW, SHE IS DEAD;
 IT SLEEPS WELL, THE HORNED HEAD:
 WE POOR LADS, 'TIS OUR TURN NOW
 TO HEAR SUCH TUNES AS KILLED THE COW.
 PRETTY FRIENDSHIP 'TIS TO RHYME
 YOUR FRIENDS TO DEATH BEFORE THEIR TIME.
 MOPING, MELANCHOLY MAD:
 COME PIPE A TUNE TO DANCE TO, LAD.

     -- A. E. HOUSMAN
 Job cpu time:       0 days  3 hours 48 minutes  0.0 seconds.
 Elapsed time:       0 days  0 hours 20 minutes  3.7 seconds.
 File lengths (MBytes):  RWF=    522 Int=      0 D2E=      0 Chk=     52 Scr=      1
 Normal termination of Gaussian 16 at Tue Sep  6 14:01:56 2022.
