Job Start Time: Mon Jan 10 10:25:54 MST 2022
SLURM Job ID: 9354844
SLURM Job Name: S-TS-I_9_DLPNO
SLURM Job Nodes:

                                 *****************
                                 * O   R   C   A *
                                 *****************

           --- An Ab Initio, DFT and Semiempirical electronic structure package ---

                  #######################################################
                  #                        -***-                        #
                  #          Department of theory and spectroscopy      #
                  #               Directorship: Frank Neese             #
                  #        Max Planck Institute fuer Kohlenforschung    #
                  #                Kaiser Wilhelm Platz 1               #
                  #                 D-45470 Muelheim/Ruhr               #
                  #                      Germany                        #
                  #                                                     #
                  #                  All rights reserved                #
                  #                        -***-                        #
                  #######################################################


                         Program Version 4.2.1 -  RELEASE  -


 With contributions from (in alphabetic order):
   Daniel Aravena         : Magnetic Suceptibility
   Michael Atanasov       : Ab Initio Ligand Field Theory (pilot matlab implementation)
   Alexander A. Auer      : GIAO ZORA, VPT2
   Ute Becker             : Parallelization
   Giovanni Bistoni       : ED, misc. LED, open-shell LED, HFLD
   Martin Brehm           : Molecular dynamics
   Dmytro Bykov           : SCF Hessian
   Vijay G. Chilkuri      : MRCI spin determinant printing, contributions to CSF-ICE
   Dipayan Datta          : RHF DLPNO-CCSD density
   Achintya Kumar Dutta   : EOM-CC, STEOM-CC
   Dmitry Ganyushin       : Spin-Orbit,Spin-Spin,Magnetic field MRCI
   Miquel Garcia          : C-PCM Hessian, Gaussian charge scheme
   Yang Guo               : DLPNO-NEVPT2, CIM, IAO-localization
   Andreas Hansen         : Spin unrestricted coupled pair/coupled cluster methods
   Benjamin Helmich-Paris : CASSCF linear response (MC-RPA)
   Lee Huntington         : MR-EOM, pCC
   Robert Izsak           : Overlap fitted RIJCOSX, COSX-SCS-MP3, EOM
   Christian Kollmar      : KDIIS, OOCD, Brueckner-CCSD(T), CCSD density
   Simone Kossmann        : Meta GGA functionals, TD-DFT gradient, OOMP2, MP2 Hessian
   Martin Krupicka        : AUTO-CI
   Lucas Lang             : DCDCAS
   Dagmar Lenk            : GEPOL surface, SMD
   Dimitrios Liakos       : Extrapolation schemes; Compound Job, initial MDCI parallelization
   Dimitrios Manganas     : Further ROCIS development; embedding schemes
   Dimitrios Pantazis     : SARC Basis sets
   Taras Petrenko         : DFT Hessian,TD-DFT gradient, ASA, ECA, R-Raman, ABS, FL, XAS/XES, NRVS
   Peter Pinski           : DLPNO-MP2, DLPNO-MP2 Gradient
   Christoph Reimann      : Effective Core Potentials
   Marius Retegan         : Local ZFS, SOC
   Christoph Riplinger    : Optimizer, TS searches, QM/MM, DLPNO-CCSD(T), (RO)-DLPNO pert. Triples
   Tobias Risthaus        : Range-separated hybrids, TD-DFT gradient, RPA, STAB
   Michael Roemelt        : Original ROCIS implementation
   Masaaki Saitow         : Open-shell DLPNO-CCSD energy and density
   Barbara Sandhoefer     : DKH picture change effects
   Avijit Sen             : IP-ROCIS
   Kantharuban Sivalingam : CASSCF convergence, NEVPT2, FIC-MRCI
   Bernardo de Souza      : ESD, SOC TD-DFT
   Georgi Stoychev        : AutoAux, RI-MP2 NMR
   Willem Van den Heuvel  : Paramagnetic NMR
   Boris Wezisla          : Elementary symmetry handling
   Frank Wennmohs         : Technical directorship


 We gratefully acknowledge several colleagues who have allowed us to
 interface, adapt or use parts of their codes:
   Stefan Grimme, W. Hujo, H. Kruse,             : VdW corrections, initial TS optimization,
                  C. Bannwarth                     DFT functionals, gCP, sTDA/sTD-DF
   Ed Valeev, F. Pavosevic, A. Kumar             : LibInt (2-el integral package), F12 methods
   Garnet Chan, S. Sharma, J. Yang, R. Olivares  : DMRG
   Ulf Ekstrom                                   : XCFun DFT Library
   Mihaly Kallay                                 : mrcc  (arbitrary order and MRCC methods)
   Andreas Klamt, Michael Diedenhofen            : otool_cosmo (COSMO solvation model)
   Jiri Pittner, Ondrej Demel                    : Mk-CCSD
   Frank Weinhold                                : gennbo (NPA and NBO analysis)
   Christopher J. Cramer and Donald G. Truhlar   : smd solvation model
   Lars Goerigk                                  : TD-DFT with DH, B97 family of functionals
   V. Asgeirsson, H. Jonsson                     : NEB implementation
   FAccTs GmbH                                   : IRC, NEB, NEB-TS, Multilevel, MM, QM/MM, CI optimization
   S Lehtola, MJT Oliveira, MAL Marques          : LibXC Library


 Your calculation uses the libint2 library for the computation of 2-el integrals
 For citations please refer to: http://libint.valeyev.net

 Your ORCA version has been built with support for libXC version: 4.2.3
 For citations please refer to: https://tddft.org/programs/libxc/

 This ORCA versions uses:
   CBLAS   interface :  Fast vector & matrix operations
   LAPACKE interface :  Fast linear algebra routines
   SCALAPACK package :  Parallel linear algebra routines


Your calculation utilizes the SMD solvation module
Please cite in your paper:
A.V. Marenich, C.J. Cramer, D.G. Truhlar J. Phys. Chem. B, 113, (2009), 6378 

----- Orbital basis set information -----
Your calculation utilizes the basis: cc-pVDZ 
       H, B-Ne : Obtained from the ccRepo (grant-hill.group.shef.ac.uk/ccrepo) Feb. 2017
                 T. H. Dunning, Jr., J. Chem. Phys. 90, 1007 (1989)
            He : Obtained from the ccRepo (grant-hill.group.shef.ac.uk/ccrepo) Feb. 2017
                 D. E. Woon, T. H. Dunning, Jr., J. Chem. Phys. 100, 2975 (1994)
  Li-Be, Na-Mg : Obtained from the ccRepo (grant-hill.group.shef.ac.uk/ccrepo) Feb. 2017
                 B. P. Prascher, D. E. Woon, K. A. Peterson, T. H. Dunning, Jr., A. K. Wilson, Theor. Chem. Acc. 128, 69 (2011)
         Al-Ar : Obtained from the ccRepo (grant-hill.group.shef.ac.uk/ccrepo) Feb. 2017
                 D. E. Woon, T. H. Dunning, Jr., J. Chem. Phys. 98, 1358 (1993)
            Ca : Obtained from the Peterson Research Group Website (tyr0.chem.wsu.edu/~kipeters) Feb. 2017
                 J. Koput, K. A. Peterson, J. Phys. Chem. 106, 9595 (2002)
         Sc-Zn : Obtained from the ccRepo (grant-hill.group.shef.ac.uk/ccrepo) Feb. 2017
                 N. B. Balabanov, K. A. Peterson, J. Chem. Phys. 123, 064107 (2005)
                 N. B. Balabanov, K. A. Peterson, J. Chem. Phys. 125, 074110 (2006)
         Ga-Kr : Obtained from the ccRepo (grant-hill.group.shef.ac.uk/ccrepo) Feb. 2017
                 A. K. Wilson, D. E. Woon, K. A. Peterson, T. H. Dunning, Jr., J. Chem. Phys. 110, 7667 (1999)

----- AuxJ basis set information -----
Your calculation utilizes the auxiliary basis: def2/J
   F. Weigend, Phys. Chem. Chem. Phys. 8, 1057 (2006).

----- AuxC basis set information -----
Your calculation utilizes the auxiliary basis: cc-pVTZ/C 
  Obtained from the EMSL Basis Set Exchange (bse.pnl.gov) Feb. 2017
  H-He, B-F, Al-Ar, Ga-Kr : F. Weigend, A. Kohn, C. Hattig, J. Chem. Phys. 116, 3175 (2002)
             Li-Be, Na-Mg : C. Haettig, Phys. Chem. Chem. Phys. 7, 59 (2005)
                       Ne : C. Haettig, Phys. Chem. Chem. Phys. 7, 59 (2005)
                            F. Weigend, A. Kohn, C. Hattig, J. Chem. Phys. 116, 3175 (2002)
                    Sc-Zn : J. G. Hill, J. A. Platts, J. Chem. Phys. 128, 044104 (2008)

================================================================================
                                        WARNINGS
                       Please study these warnings very carefully!
================================================================================


WARNING: MDCI localization with Augmented Hessian Foster-Boys
  ===> : Switching off randomization!

WARNING: Post HF methods need fully converged wavefunctions
  ===> : Setting SCFConvForced true
         You can overwrite this default with %scf ConvForced false 


INFO   : the flag for use of LIBINT has been found!

================================================================================
                                       INPUT FILE
================================================================================
NAME = /scratch/summit/jvalegre@colostate.edu/9354844/S-TS-I_9_DLPNO.inp
|  1> # S-TS-I_9_DLPNO
|  2> # Memory per core
|  3> %maxcore 4000
|  4> # Number of processors
|  5> %pal nprocs 24 end
|  6> !  Extrapolate(2/3,cc) def2/J cc-pVTZ/C DLPNO-CCSD(T) NormalPNO TightSCF RIJCOSX GridX7
|  7> %cpcm
|  8> smd true
|  9> SMDsolvent "CH2Cl2"
| 10> end
| 11> %method
| 12> Grid 3
| 13> FinalGrid 5
| 14> end
| 15> %scf maxiter 500
| 16>     end
| 17> % mdci
| 18>    Density None
| 19> end
| 20> % output
| 21>    printlevel mini
| 22>    print[ P_SCFInfo ] 1
| 23>    print[ P_SCFIterInfo ] 1
| 24>    print[ P_OrbEn ] 0
| 25>    print[ P_Cartesian ] 0
| 26> end
| 27> % elprop
| 28>    Dipole False
| 29> end
| 30> * xyz 0 1
| 31> N  2.176653  0.113502  1.881946
| 32> C  2.837113  0.117463  3.223471
| 33> H  3.014347  -0.924393  3.49368
| 34> H  2.111614  0.531992  3.923324
| 35> C  4.148547  0.925578  3.142414
| 36> H  4.989093  0.223626  3.194888
| 37> C  4.212621  1.593428  1.744334
| 38> H  5.094667  2.236183  1.686922
| 39> C  4.294456  0.493834  0.675308
| 40> H  5.23446  -0.057456  0.766791
| 41> H  4.257972  0.94504  -0.319314
| 42> C  3.10479  -0.461521  0.858258
| 43> H  2.532749  -0.597113  -0.057238
| 44> H  3.401019  -1.440385  1.238515
| 45> C  2.947528  2.429393  1.505751
| 46> H  3.017515  2.912511  0.52938
| 47> H  2.854318  3.210999  2.26309
| 48> C  1.708239  1.510038  1.548001
| 49> H  1.055767  1.773899  2.38425
| 50> C  0.843748  1.522439  0.273929
| 51> C  4.357396  1.936045  4.24109
| 52> H  5.365132  2.351871  4.255938
| 53> C  3.479389  2.38276  5.139467
| 54> H  2.452109  2.032506  5.198225
| 55> H  3.772089  3.13662  5.864884
| 56> N  -1.780541  4.997108  0.347236
| 57> C  -0.578185  5.033027  -0.178167
| 58> H  -0.256963  5.981747  -0.602388
| 59> C  0.29481  3.921305  -0.22506
| 60> H  1.259414  4.01842  -0.710362
| 61> C  -0.09312  2.722741  0.314739
| 62> C  -1.400442  2.634505  0.88948
| 63> C  -1.936047  1.446754  1.439472
| 64> H  -1.359388  0.530354  1.476773
| 65> C  -3.225554  1.411942  1.927152
| 66> C  -4.032409  2.577186  1.904461
| 67> H  -5.046664  2.55934  2.285797
| 68> C  -3.522151  3.743588  1.388884
| 69> H  -4.127807  4.644375  1.36191
| 70> C  -2.207121  3.808362  0.868136
| 71> C  4.022341  -3.307407  -1.050979
| 72> C  2.676832  -3.649017  -1.046004
| 73> C  1.750706  -2.877966  -1.753166
| 74> C  2.182375  -1.782844  -2.508884
| 75> C  3.527937  -1.438872  -2.536447
| 76> C  4.421752  -2.199924  -1.792112
| 77> H  4.745671  -3.881435  -0.485241
| 78> H  2.336421  -4.50473  -0.473828
| 79> H  1.475282  -1.185439  -3.074845
| 80> H  3.871839  -0.587081  -3.109854
| 81> N  5.83235  -1.803232  -1.764463
| 82> O  6.18312  -0.862538  -2.464829
| 83> O  6.593415  -2.426427  -1.034539
| 84> C  0.298615  -3.249879  -1.641107
| 85> N  -0.534149  -2.200379  -1.575483
| 86> N  -1.894314  -2.388888  -1.382258
| 87> O  -0.082996  -4.424567  -1.584698
| 88> H  -0.270701  -1.211605  -1.761444
| 89> O  1.659361  1.535356  -0.873271
| 90> H  1.079095  1.207414  -1.595997
| 91> H  0.235796  0.610349  0.266358
| 92> O  -3.649134  0.215905  2.411551
| 93> C  -4.980262  0.101863  2.894738
| 94> H  -5.711809  0.323264  2.109363
| 95> H  -5.092933  -0.93599  3.209197
| 96> H  -5.148979  0.759392  3.754949
| 97> H  -2.211267  -3.226367  -1.870067
| 98> H  -2.360735  -1.531742  -1.721036
| 99> C  -3.806858  -4.688622  0.527503
|100> C  -5.073166  -5.230837  0.332562
|101> C  -6.177513  -4.395314  0.15683
|102> C  -6.01112  -3.010955  0.170053
|103> C  -4.744925  -2.466931  0.361553
|104> C  -3.63241  -3.298211  0.551342
|105> H  -2.957429  -5.352273  0.653708
|106> H  -5.199354  -6.308928  0.31583
|107> H  -7.163851  -4.823716  0.006684
|108> H  -6.865083  -2.355702  0.028801
|109> H  -4.607661  -1.388992  0.365945
|110> C  -2.324239  -2.657021  0.753585
|111> H  -2.347254  -1.576647  0.8468
|112> C  -1.215199  -3.298381  1.264444
|113> H  -1.06328  -4.365443  1.311679
|114> N  -0.1207  -2.567579  1.670575
|115> O  0.901422  -3.157886  2.05958
|116> O  -0.165419  -1.305501  1.676797
|117> H  1.338195  -0.503617  1.926474
|118> C  -1.538265  2.3293  -2.891832
|119> C  -0.479407  2.940024  -3.569758
|120> C  -0.582614  4.263937  -3.989589
|121> C  -1.740347  4.993587  -3.717976
|122> C  -2.796961  4.391268  -3.03523
|123> C  -2.699055  3.061939  -2.631831
|124> H  0.424183  2.371941  -3.766899
|125> H  0.241728  4.72885  -4.522469
|126> H  -1.817424  6.029862  -4.034104
|127> H  -3.694408  4.959713  -2.809992
|128> H  -3.515908  2.584257  -2.1004
|129> C  -1.430855  0.89561  -2.429623
|130> O  -0.255728  0.402186  -2.347495
|131> O  -2.481854  0.272913  -2.160932
|132> *
|133> 
|134>                          ****END OF INPUT****
================================================================================

                   *****************************************
                   * Extrapolated Single Point Calculation *
                   *****************************************

----- Orbital basis set information -----
Your calculation utilizes the basis: cc-pVDZ 
       H, B-Ne : Obtained from the ccRepo (grant-hill.group.shef.ac.uk/ccrepo) Feb. 2017
                 T. H. Dunning, Jr., J. Chem. Phys. 90, 1007 (1989)
            He : Obtained from the ccRepo (grant-hill.group.shef.ac.uk/ccrepo) Feb. 2017
                 D. E. Woon, T. H. Dunning, Jr., J. Chem. Phys. 100, 2975 (1994)
  Li-Be, Na-Mg : Obtained from the ccRepo (grant-hill.group.shef.ac.uk/ccrepo) Feb. 2017
                 B. P. Prascher, D. E. Woon, K. A. Peterson, T. H. Dunning, Jr., A. K. Wilson, Theor. Chem. Acc. 128, 69 (2011)
         Al-Ar : Obtained from the ccRepo (grant-hill.group.shef.ac.uk/ccrepo) Feb. 2017
                 D. E. Woon, T. H. Dunning, Jr., J. Chem. Phys. 98, 1358 (1993)
            Ca : Obtained from the Peterson Research Group Website (tyr0.chem.wsu.edu/~kipeters) Feb. 2017
                 J. Koput, K. A. Peterson, J. Phys. Chem. 106, 9595 (2002)
         Sc-Zn : Obtained from the ccRepo (grant-hill.group.shef.ac.uk/ccrepo) Feb. 2017
                 N. B. Balabanov, K. A. Peterson, J. Chem. Phys. 123, 064107 (2005)
                 N. B. Balabanov, K. A. Peterson, J. Chem. Phys. 125, 074110 (2006)
         Ga-Kr : Obtained from the ccRepo (grant-hill.group.shef.ac.uk/ccrepo) Feb. 2017
                 A. K. Wilson, D. E. Woon, K. A. Peterson, T. H. Dunning, Jr., J. Chem. Phys. 110, 7667 (1999)

----- AuxJ basis set information -----
Your calculation utilizes the auxiliary basis: def2/JK
   H-Ba, Hf-Rn: F. Weigend, J. Comput. Chem. 29, 167 (2008).

----- AuxC basis set information -----
Your calculation utilizes the auxiliary basis: cc-pVTZ/C 
  Obtained from the EMSL Basis Set Exchange (bse.pnl.gov) Feb. 2017
  H-He, B-F, Al-Ar, Ga-Kr : F. Weigend, A. Kohn, C. Hattig, J. Chem. Phys. 116, 3175 (2002)
             Li-Be, Na-Mg : C. Haettig, Phys. Chem. Chem. Phys. 7, 59 (2005)
                       Ne : C. Haettig, Phys. Chem. Chem. Phys. 7, 59 (2005)
                            F. Weigend, A. Kohn, C. Hattig, J. Chem. Phys. 116, 3175 (2002)
                    Sc-Zn : J. G. Hill, J. A. Platts, J. Chem. Phys. 128, 044104 (2008)

----- AuxJK basis set information -----
Your calculation utilizes the auxiliary basis: def2/JK
   H-Ba, Hf-Rn: F. Weigend, J. Comput. Chem. 29, 167 (2008).

All done

                     -----------------------------------------
                     Extrapolated Energy 1 Basis=     cc-pVDZ
                     -----------------------------------------



           ************************************************************
           *        Program running with 24 parallel MPI-processes    *
           *              working on a common directory               *
           ************************************************************
 One Electron integrals                  ... done
 Pre-screening matrix                    ... done


           ************************************************************
           *        Program running with 24 parallel MPI-processes    *
           *              working on a common directory               *
           ************************************************************
------------
SCF SETTINGS
------------
Hamiltonian:
 Ab initio Hamiltonian  Method          .... Hartree-Fock(GTOs)
 RI-approximation to the Coulomb term is turned on
   Number of auxiliary basis functions  .... 5097
   RIJ-COSX (HFX calculated with COS-X)).... on


General Settings:
 Integral files         IntName         .... /scratch/summit/jvalegre@colostate.edu/9354844/S-TS-I_9_DLPNO
 Hartree-Fock type      HFTyp           .... RHF
 Total Charge           Charge          ....    0
 Multiplicity           Mult            ....    1
 Number of Electrons    NEL             ....  410
 Basis Dimension        Dim             .... 1018
 Nuclear Repulsion      ENuc            ....   8737.3447359564 Eh

Convergence Acceleration:
 DIIS                   CNVDIIS         .... on
   Start iteration      DIISMaxIt       ....    12
   Startup error        DIISStart       ....  0.200000
   # of expansion vecs  DIISMaxEq       ....     5
   Bias factor          DIISBfac        ....   1.050
   Max. coefficient     DIISMaxC        ....  10.000
 Newton-Raphson         CNVNR           .... off
 SOSCF                  CNVSOSCF        .... on
   Start iteration      SOSCFMaxIt      ....   150
   Startup grad/error   SOSCFStart      ....  0.003300
 Level Shifting         CNVShift        .... on
   Level shift para.    LevelShift      ....    0.2500
   Turn off err/grad.   ShiftErr        ....    0.0010
 Zerner damping         CNVZerner       .... off
 Static damping         CNVDamp         .... on
   Fraction old density DampFac         ....    0.7000
   Max. Damping (<1)    DampMax         ....    0.9800
   Min. Damping (>=0)   DampMin         ....    0.0000
   Turn off err/grad.   DampErr         ....    0.1000
 Fernandez-Rico         CNVRico         .... off

SCF Procedure:
 Maximum # iterations   MaxIter         ....   500
 SCF integral mode      SCFMode         .... Direct
   Integral package                     .... LIBINT
 Reset frequency        DirectResetFreq ....    20
 Integral Threshold     Thresh          ....  2.500e-11 Eh
 Primitive CutOff       TCut            ....  2.500e-12 Eh

Convergence Tolerance:
 Convergence Check Mode ConvCheckMode   .... Total+1el-Energy
 Convergence forced     ConvForced      .... 1
 Energy Change          TolE            ....  1.000e-08 Eh
 1-El. energy change                    ....  1.000e-05 Eh
 Orbital Gradient       TolG            ....  1.000e-05
 Orbital Rotation angle TolX            ....  1.000e-05
 DIIS Error             TolErr          ....  5.000e-07


Diagonalization of the overlap matrix:
Smallest eigenvalue                        ... 2.428e-04
Time for diagonalization                   ...    0.341 sec
Threshold for overlap eigenvalues          ... 1.000e-08
Number of eigenvalues below threshold      ... 0
Time for construction of square roots      ...    0.165 sec
Total time needed                          ...    0.509 sec

-------------------
DFT GRID GENERATION
-------------------

General Integration Accuracy     IntAcc      ...  4.340
Radial Grid Type                 RadialGrid  ... Gauss-Chebyshev
Angular Grid (max. acc.)         AngularGrid ... Lebedev-194
Angular grid pruning method      GridPruning ... 3 (G Style)
Weight generation scheme         WeightScheme... Becke
Basis function cutoff            BFCut       ...    1.0000e-11
Integration weight cutoff        WCut        ...    1.0000e-14
Grids for H and He will be reduced by one unit

# of grid points (after initial pruning)     ... 255054 (   0.0 sec)
# of grid points (after weights+screening)   ... 214545 (   1.3 sec)
nearest neighbour list constructed           ...    0.0 sec
Grid point re-assignment to atoms done       ...    0.1 sec
Grid point division into batches done        ...    0.4 sec
Reduced shell lists constructed in    0.7 sec

Total number of grid points                  ...   214545
Total number of batches                      ...     3401
Average number of points per batch           ...       63
Average number of grid points per atom       ...     2124
Average number of shells per batch           ...   159.39 (33.63%)
Average number of basis functions per batch  ...   311.42 (30.59%)
Average number of large shells per batch     ...    89.68 (56.26%)
Average number of large basis fcns per batch ...   180.01 (57.80%)
Maximum spatial batch extension              ...  16.43, 12.19, 13.02 au
Average spatial batch extension              ...   0.08,  0.08,  0.08 au

Time for grid setup =    2.120 sec

Loading Hartree-Fock densities                     ... done
Calculating cut-offs                               ... done
Setting up the integral package                    ... done
Initializing the effective Hamiltonian             ... done
Starting the Coulomb interaction                   ... done (   1.1 sec)
Reading the grid                                   ... done
Mapping shells                                     ... done
Starting the XC term evaluation                    ... done (   0.2 sec)
Transforming the Hamiltonian                       ... done (   0.1 sec)
Diagonalizing the Hamiltonian                      ... done (   0.2 sec)
Back transforming the eigenvectors                 ... done (   0.0 sec)
Now organizing SCF variables                       ... done
--------------------
COSX GRID GENERATION
--------------------

General Integration Accuracy     IntAcc      ...  3.670
Radial Grid Type                 RadialGrid  ... Gauss-Chebyshev
Angular Grid (max. acc.)         AngularGrid ... Lebedev-50
Angular grid pruning method      GridPruning ... 3 (G Style)
Weight generation scheme         WeightScheme... Becke
Basis function cutoff            BFCut       ...    1.0000e-11
Integration weight cutoff        WCut        ...    1.0000e-14
Grids for H and He will be reduced by one unit

# of grid points (after initial pruning)     ...  59642 (   0.0 sec)
# of grid points (after weights+screening)   ...  51551 (   0.3 sec)
nearest neighbour list constructed           ...    0.0 sec
Grid point re-assignment to atoms done       ...    0.0 sec
Grid point division into batches done        ...    0.0 sec
Reduced shell lists constructed in    0.1 sec

Total number of grid points                  ...    51551
Total number of batches                      ...      847
Average number of points per batch           ...       60
Average number of grid points per atom       ...      510
Average number of shells per batch           ...   175.51 (37.03%)
Average number of basis functions per batch  ...   345.19 (33.91%)
Average number of large shells per batch     ...    99.30 (56.58%)
Average number of large basis fcns per batch ...   200.65 (58.13%)
Maximum spatial batch extension              ...  13.44, 14.37, 17.87 au
Average spatial batch extension              ...   0.13,  0.12,  0.15 au

Overlap Fitting                  UseSFitting ... on
Constructing numerical overlap ... done (      0.1 sec)
Inverting numerical overlap    ... done (      0.1 sec)
Obtaining analytic overlap     ... done (      0.0 sec)
Final contraction and storage  ... done (      0.1 sec)


General Integration Accuracy     IntAcc      ...  4.010
Radial Grid Type                 RadialGrid  ... Gauss-Chebyshev
Angular Grid (max. acc.)         AngularGrid ... Lebedev-110
Angular grid pruning method      GridPruning ... 3 (G Style)
Weight generation scheme         WeightScheme... Becke
Basis function cutoff            BFCut       ...    1.0000e-11
Integration weight cutoff        WCut        ...    1.0000e-14
Grids for H and He will be reduced by one unit

# of grid points (after initial pruning)     ... 112654 (   0.0 sec)
# of grid points (after weights+screening)   ...  96655 (   0.6 sec)
nearest neighbour list constructed           ...    0.0 sec
Grid point re-assignment to atoms done       ...    0.0 sec
Grid point division into batches done        ...    0.1 sec
Reduced shell lists constructed in    0.2 sec

Total number of grid points                  ...    96655
Total number of batches                      ...     1563
Average number of points per batch           ...       61
Average number of grid points per atom       ...      957
Average number of shells per batch           ...   166.37 (35.10%)
Average number of basis functions per batch  ...   326.49 (32.07%)
Average number of large shells per batch     ...    95.42 (57.35%)
Average number of large basis fcns per batch ...   190.85 (58.45%)
Maximum spatial batch extension              ...  15.03, 14.95, 15.93 au
Average spatial batch extension              ...   0.11,  0.10,  0.11 au

Overlap Fitting                  UseSFitting ... on
Constructing numerical overlap ... done (      0.1 sec)
Inverting numerical overlap    ... done (      0.1 sec)
Obtaining analytic overlap     ... done (      0.0 sec)
Final contraction and storage  ... done (      0.1 sec)


General Integration Accuracy     IntAcc      ...  4.340
Radial Grid Type                 RadialGrid  ... Gauss-Chebyshev
Angular Grid (max. acc.)         AngularGrid ... Lebedev-302
Angular grid pruning method      GridPruning ... 3 (G Style)
Weight generation scheme         WeightScheme... Becke
Basis function cutoff            BFCut       ...    1.0000e-11
Integration weight cutoff        WCut        ...    1.0000e-14
Grids for H and He will be reduced by one unit

# of grid points (after initial pruning)     ... 439278 (   0.0 sec)
# of grid points (after weights+screening)   ... 364253 (   2.1 sec)
nearest neighbour list constructed           ...    0.0 sec
Grid point re-assignment to atoms done       ...    0.1 sec
Grid point division into batches done        ...    1.0 sec
Reduced shell lists constructed in    1.6 sec

Total number of grid points                  ...   364253
Total number of batches                      ...     5747
Average number of points per batch           ...       63
Average number of grid points per atom       ...     3606
Average number of shells per batch           ...   153.59 (32.40%)
Average number of basis functions per batch  ...   300.09 (29.48%)
Average number of large shells per batch     ...    86.05 (56.02%)
Average number of large basis fcns per batch ...   172.38 (57.44%)
Maximum spatial batch extension              ...  13.93, 13.56, 12.87 au
Average spatial batch extension              ...   0.07,  0.07,  0.07 au

Overlap Fitting                  UseSFitting ... on
Constructing numerical overlap ... done (      0.3 sec)
Inverting numerical overlap    ... done (      0.1 sec)
Obtaining analytic overlap     ... done (      0.0 sec)
Final contraction and storage  ... done (      0.1 sec)

Time for X-Grid setup             =    7.681 sec

--------------------
CPCM SOLVATION MODEL
--------------------
CPCM parameters:
  Epsilon                                         ...       8.9300
  Refrac                                          ...       1.0000
  Rsolv                                           ...       1.3000
  Surface type                                    ...    GEPOL SES
  Epsilon function type                           ...         CPCM
Solvent:                                     ... CH2CL2
SMD-CDS solvent descriptors:
  Soln                                       ...    1.4242
  Soln25                                     ...    1.4212
  Sola                                       ...    0.1000
  Solb                                       ...    0.0500
  Solg                                       ...   39.1500
  Solc                                       ...    0.0000
  Solh                                       ...    0.6670
Radii:
 Radius for N  used is    3.5716 Bohr (=   1.8900 Ang.)
 Radius for C  used is    3.4960 Bohr (=   1.8500 Ang.)
 Radius for H  used is    2.2677 Bohr (=   1.2000 Ang.)
 Radius for O  used is    3.9949 Bohr (=   2.1140 Ang.)
Calculating surface                               ...        done! (  0.6s)
GEPOL surface points                              ...         3029
GEPOL Volume                                      ...    6063.9382
GEPOL Surface-area                                ...    2280.7634
Calculating surface distance matrix               ...        done! (  0.1s)
Performing Cholesky decomposition & store         ...        done! (  0.5s)
Overall time for CPCM initialization              ...                 1.3s
--------------
SCF ITERATIONS
--------------
ITER       Energy         Delta-E        Max-DP      RMS-DP      [F,P]     Damp
               ***  Starting incremental Fock matrix formation  ***
  0  -2614.7240643437   0.000000000000 0.06644621  0.00096040  0.2720901 0.7000
  1  -2615.3206506545  -0.596586310845 0.04719882  0.00075171  0.1653251 0.7000
                               ***Turning on DIIS***
  2  -2615.6886787235  -0.368028068969 0.11040332  0.00175108  0.0926986 0.0000
  3  -2613.5095529982   2.179125725313 0.03187532  0.00031922  0.0534124 0.0000
  4  -2616.7482359887  -3.238682990573 0.01124756  0.00012988  0.0160054 0.0000
  5  -2616.5197371031   0.228498885676 0.00711137  0.00006331  0.0074508 0.0000
  6  -2616.4649103788   0.054826724235 0.00357020  0.00003367  0.0039895 0.0000
                      *** Initiating the SOSCF procedure ***
                           *** Shutting down DIIS ***
                      *** Re-Reading the Fockian *** 
                      *** Removing any level shift *** 
ITER      Energy       Delta-E        Grad      Rot      Max-DP    RMS-DP
  7  -2616.50689553  -0.0419851476  0.001468  0.001468  0.002231  0.000019
               *** Restarting incremental Fock matrix formation ***
  8  -2616.48563636   0.0212591683  0.000721  0.001931  0.001428  0.000022
  9  -2616.48568295  -0.0000465913  0.000362  0.002284  0.001750  0.000016
 10  -2616.48570293  -0.0000199811  0.000089  0.000234  0.000400  0.000006
 11  -2616.48570478  -0.0000018533  0.000091  0.000239  0.000120  0.000002
 12  -2616.48570538  -0.0000005995  0.000038  0.000178  0.000126  0.000001
 13  -2616.48570560  -0.0000002196  0.000013  0.000061  0.000043  0.000000
 14  -2616.48570561  -0.0000000076  0.000005  0.000017  0.000016  0.000000
                  ***Gradient check signals convergence***
              ***Rediagonalizing the Fockian in SOSCF/NRSCF***

               *****************************************************
               *                     SUCCESS                       *
               *           SCF CONVERGED AFTER  15 CYCLES          *
               *****************************************************

Old exchange energy                            =   -347.690247916 Eh
New exchange energy                            =   -347.690659268 Eh
Exchange energy change after final integration =     -0.000411352 Eh
Total energy after final integration           =  -2616.486116954 Eh
Final COS-X integration done in                =    78.005 sec

SMD CDS free energy correction energy :               -10.94101     Kcal/mol
Total Energy after SMD CDS correction =             -2616.503552564 Eh
Total Energy       :        -2616.50355256 Eh          -71198.68134 eV
  Last Energy change         ...    8.5697e-09  Tolerance :   1.0000e-08
  Last MAX-Density change    ...    1.1102e-14  Tolerance :   1.0000e-07
             **** THE GBW FILE WAS UPDATED (/scratch/summit/jvalegre@colostate.edu/9354844/S-TS-I_9_DLPNO.gbw) ****
             **** DENSITY FILE WAS UPDATED (/scratch/summit/jvalegre@colostate.edu/9354844/S-TS-I_9_DLPNO.scfp) ****
             **** ENERGY FILE WAS UPDATED (/scratch/summit/jvalegre@colostate.edu/9354844/S-TS-I_9_DLPNO.en.tmp) ****
             **** THE GBW FILE WAS UPDATED (/scratch/summit/jvalegre@colostate.edu/9354844/S-TS-I_9_DLPNO.gbw) ****
             **** DENSITY FILE WAS UPDATED (/scratch/summit/jvalegre@colostate.edu/9354844/S-TS-I_9_DLPNO.scfp) ****
Total SCF time: 0 days 0 hours 6 min 32 sec 


           ************************************************************
           *        Program running with 24 parallel MPI-processes    *
           *              working on a common directory               *
           ************************************************************


------------------------------------------------------------------------------- 
                              ORCA-MATRIX DRIVEN CI                            
------------------------------------------------------------------------------- 


Wavefunction type
-----------------
Correlation treatment                      ...      CCSD     
Single excitations                         ... ON
Orbital optimization                       ... OFF
Calculation of Z vector                    ... OFF
Calculation of Brueckner orbitals          ... OFF
Perturbative triple excitations            ... ON
Calculation of F12 correction              ... OFF
Frozen core treatment                      ... chemical core (114 el)
Reference Wavefunction                     ... RHF
  Internal Orbitals:    57 ...  204 (148 MO's/296 electrons)
  Virtual  Orbitals:   205 ... 1017 (813 MO's              )
Number of AO's                             ...   1018
Number of electrons                        ...    410
Number of correlated electrons             ...    296

Algorithmic settings
--------------------
Integral transformation                    ... All integrals via the RI transformation
K(C) Formation                             ... RI-DLPNO
   PNO-Integral Storage                    ... ON DISK
   PNO occupation number cut-off           ... 3.330e-07
   Singles PNO occupation number cut-off   ... 9.990e-09
   PNO Mulliken prescreening cut-off       ... 1.000e-03
   Domain cut-off (Mulliken population)    ... 1.000e-03
   PNO Normalization                       ...    1
Maximum number of iterations               ...        50
Convergence tolerance (max. residuum)      ... 1.000e-05
Level shift for amplitude update           ... 2.000e-01
Maximum number of DIIS vectors             ...         7
DIIS turned on at iteration                ...         0
Damping before turning on DIIS             ...     0.500
Damping after turning on DIIS              ...     0.000
Pair specific amplitude update             ... OFF
Natural orbital iterations                 ... OFF
Perturbative natural orbital generation    ... OFF
Printlevel                                 ... 2

Singles Fock matrix elements calculated using PNOs.

Memory handling:
----------------
Maximum memory for working arrays          ...   4000 MB
Data storage in matrix containers          ... UNCOMPRESSED
Data type for integral storage             ... DOUBLE
In-Core Storage of quantities:
   Amplitudes+Sigma Vector      ... NO
   J+K operators                ... NO
   DIIS vectors                 ... NO
   3-external integrals         ... NO
   4-external integrals         ... NO

Localization treatment:
-----------------------
Localization option                        ...    6
Localization threshhold                    ... -1.0e+00
Using relative localization threshhold     ... 1.0e-08
Neglect threshold for strong pairs         ... 1.000e-04 Eh
Prescreening threshold for very weak pairs ... 1.000e-06 Eh

Initializing the integral package          ... done
Localizing the valence orbitals
------------------------------------------------------------------------------
                           ORCA ORBITAL LOCALIZATION
------------------------------------------------------------------------------

Input orbitals are from                  ... /scratch/summit/jvalegre@colostate.edu/9354844/S-TS-I_9_DLPNO.gbw
Output orbitals are to                   ... /scratch/summit/jvalegre@colostate.edu/9354844/S-TS-I_9_DLPNO.loc
Max. number of iterations                ... 128
Localizations seeded randomly            ... off
Convergence tolerance                    ... 1.000e-06
Using relative localization threshhold   ... 1.000e-08
Treshold for strong local MOs            ... 9.500e-01
Treshold for bond MOs                    ... 8.500e-01
Operator                                 ... 0
Orbital range for localization           ... 57 to 204
Localization criterion                   ... FOSTER-BOYS (AUGMENTED HESSIAN)
Doing the dipole integrals     ... o.k.
Initial value of the localization sum : 11993.905217
ITERATION   0 : L=12163.4868563100 DL=  1.70e+02 (AVERGE_DL)=    0.1248575725 
ITERATION   1 : L=12187.3562582791 DL=  2.39e+01 (AVERGE_DL)=    0.0468431662 
ITERATION   2 : L=12189.7261987321 DL=  2.37e+00 (AVERGE_DL)=    0.0147602662 
ITERATION   3 : L=12190.7173679527 DL=  9.91e-01 (AVERGE_DL)=    0.0095455153 
ITERATION   4 : L=12191.4254595732 DL=  7.08e-01 (AVERGE_DL)=    0.0080680801 
ITERATION   5 : L=12192.1562414676 DL=  7.31e-01 (AVERGE_DL)=    0.0081963286 
ITERATION   6 : L=12192.7048521152 DL=  5.49e-01 (AVERGE_DL)=    0.0071016226 
ITERATION   7 : L=12193.0723941877 DL=  3.68e-01 (AVERGE_DL)=    0.0058127146 
ITERATION   8 : L=12193.2300902604 DL=  1.58e-01 (AVERGE_DL)=    0.0038074649 
ITERATION   9 : L=12193.2702719324 DL=  4.02e-02 (AVERGE_DL)=    0.0019219384 
ITERATION  10 : L=12193.2790578245 DL=  8.79e-03 (AVERGE_DL)=    0.0008987076 
ITERATION  11 : L=12193.2810454768 DL=  1.99e-03 (AVERGE_DL)=    0.0004274602 
ITERATION  12 : L=12193.2815290060 DL=  4.84e-04 (AVERGE_DL)=    0.0002108321 
ITERATION  13 : L=12193.2816598259 DL=  1.31e-04 (AVERGE_DL)=    0.0001096636 
ITERATION  14 : L=12193.2817017963 DL=  4.20e-05 (AVERGE_DL)=    0.0000621151 
ITERATION  15 : L=12193.2817185773 DL=  1.68e-05 (AVERGE_DL)=    0.0000392766 
ITERATION  16 : L=12193.2817267505 DL=  8.17e-06 (AVERGE_DL)=    0.0000274109 
ITERATION  17 : L=12193.2817312552 DL=  4.50e-06 (AVERGE_DL)=    0.0000203496 
ITERATION  18 : L=12193.2817338996 DL=  2.64e-06 (AVERGE_DL)=    0.0000155916 
ITERATION  19 : L=12193.2817354932 DL=  1.59e-06 (AVERGE_DL)=    0.0000121037 
ITERATION  20 : L=12193.2817364659 DL=  9.73e-07 (AVERGE_DL)=    0.0000094562 
LOCALIZATION SUM CONVERGED

------------------------------------------------------
AUGMENTED HESSIAN OPTIMIZATION OF FOSTER-BOYS ORBITALS
------------------------------------------------------

Spin operator:           0
Orbital window:          57 to 204
Number of iterations:    128
Gradient tolerance:      1.000e-06
Number of pairs:         10878
Davidson threshold:      2000
Diagonalization method:  Davidson
Iter:    0   L: 12193.2817364659   Grad. norm: 4.727995e-02
   *** Likely close to a maximum now. ***
       Augmented Hessian eigenvalues:  5.52e-06 -2.29e-01 -7.19e-01 -7.41e-01 ... 
Iter:    1   L: 12193.2817392267   Grad. norm: 1.424855e-05
Iter:    2   L: 12193.2817392267   Grad. norm: 4.192491e-10
LOCALIZATION HAS CONVERGED.

Eigenvalues of the Hessian:
  Davidson eigenvalue tolerance: 1.0e-06
  Davidson residual tolerance:   1.0e-06
  0 -2.279e-01
  1 -7.195e-01
  2 -7.406e-01
  3 -8.512e-01
  4 -1.081e+00
  5 -1.119e+00
  6 -1.141e+00
  7 -1.193e+00
  8 -1.300e+00
  9 -1.368e+00
    ...


------------------------------------------------------------------------------- 
                    LOCALIZED MOLECULAR ORBITAL COMPOSITIONS                   
------------------------------------------------------------------------------- 

The Mulliken populations for each LMO on each atom are computed
The LMO`s will be ordered according to atom index and type
  (A) Strongly localized MO`s have populations of >=0.950 on one atom
  (B) Two center bond orbitals have populations of >=0.850 on two atoms
  (C) Other MO`s are considered to be `delocalized`

FOUND  -  13 strongly local MO`s
       - 135 two center bond MO`s
       -   0 significantly delocalized MO`s

Rather strongly localized orbitals:
MO  69: 100O  -   0.953385
MO  68:  85O  -   0.966610
MO  67:  85O  -   0.976781
MO  66:  84O  -   0.979427
MO  65:  84O  -   0.982414
MO  64:  61O  -   0.958928
MO  63:  61O  -   0.962250
MO  62:  58O  -   0.980422
MO  61:  58O  -   0.971653
MO  60:  52O  -   0.975220
MO  59:  52O  -   0.984037
MO  58:  51O  -   0.975250
MO  57:  51O  -   0.983818
Bond-like localized orbitals:
MO 204: 100O  -   0.698246  and  98C  -   0.307049
MO 203: 100O  -   0.706296  and  98C  -   0.301320
MO 202: 100O  -   0.938463  and  67H  -   0.032413
MO 201:  99O  -   0.712268  and  98C  -   0.290099
MO 200:  99O  -   0.753222  and  98C  -   0.245025
MO 199:  99O  -   0.947187  and  98C  -   0.027658
MO 198:  99O  -   0.944908  and  57H  -   0.040641
MO 197:  98C  -   0.486459  and  87C  -   0.578392
MO 196:  97H  -   0.484910  and  92C  -   0.523742
MO 195:  96H  -   0.491283  and  91C  -   0.518312
MO 194:  95H  -   0.490214  and  90C  -   0.521474
MO 193:  94H  -   0.491283  and  89C  -   0.518397
MO 192:  93H  -   0.487864  and  88C  -   0.520470
MO 191:  92C  -   0.516960  and  91C  -   0.515908
MO 190:  92C  -   0.442332  and  87C  -   0.487108
MO 189:  92C  -   0.416057  and  87C  -   0.505949
MO 188:  91C  -   0.479730  and  90C  -   0.448634
MO 187:  91C  -   0.477132  and  90C  -   0.453584
MO 186:  90C  -   0.516121  and  89C  -   0.513517
MO 185:  89C  -   0.484467  and  88C  -   0.447670
MO 184:  89C  -   0.481309  and  88C  -   0.451738
MO 183:  88C  -   0.498607  and  87C  -   0.527143
MO 182:  86H  -   0.346273  and   0N  -   0.646441
MO 181:  85O  -   0.503502  and  83N  -   0.524308
MO 180:  85O  -   0.828565  and  83N  -   0.160414
MO 179:  84O  -   0.621115  and  83N  -   0.396537
MO 178:  84O  -   0.630818  and  83N  -   0.384743
MO 177:  83N  -   0.681235  and  81C  -   0.361411
MO 176:  82H  -   0.463001  and  81C  -   0.543442
MO 175:  81C  -   0.650612  and  79C  -   0.205582
MO 174:  81C  -   0.483361  and  79C  -   0.534096
MO 173:  80H  -   0.443447  and  79C  -   0.556322
MO 172:  79C  -   0.546864  and  73C  -   0.503039
MO 171:  78H  -   0.478921  and  72C  -   0.531090
MO 170:  77H  -   0.483390  and  71C  -   0.525960
MO 169:  76H  -   0.483596  and  70C  -   0.527391
MO 168:  75H  -   0.482322  and  69C  -   0.525784
MO 167:  74H  -   0.479616  and  68C  -   0.528028
MO 166:  73C  -   0.506397  and  72C  -   0.424322
MO 165:  73C  -   0.509248  and  72C  -   0.413714
MO 164:  73C  -   0.530997  and  68C  -   0.494074
MO 163:  72C  -   0.525970  and  71C  -   0.504795
MO 162:  71C  -   0.482100  and  70C  -   0.441716
MO 161:  71C  -   0.487631  and  70C  -   0.439726
MO 160:  70C  -   0.516630  and  69C  -   0.514031
MO 159:  69C  -   0.473497  and  68C  -   0.457235
MO 158:  69C  -   0.475886  and  68C  -   0.455085
MO 157:  67H  -   0.380167  and  55N  -   0.622037
MO 156:  66H  -   0.423497  and  55N  -   0.580757
MO 155:  65H  -   0.486229  and  62C  -   0.532678
MO 154:  64H  -   0.477520  and  62C  -   0.537134
MO 153:  63H  -   0.489876  and  62C  -   0.528784
MO 152:  62C  -   0.330330  and  61O  -   0.696054
MO 151:  61O  -   0.664502  and  34C  -   0.356871
MO 150:  60H  -   0.472456  and  19C  -   0.531815
MO 149:  59H  -   0.346730  and  58O  -   0.658323
MO 148:  58O  -   0.639918  and  19C  -   0.374466
MO 147:  57H  -   0.344592  and  54N  -   0.656794
MO 146:  56O  -   0.683412  and  53C  -   0.331804
MO 145:  56O  -   0.680172  and  53C  -   0.322914
MO 144:  56O  -   0.947010  and  53C  -   0.053860
MO 143:  56O  -   0.941624  and  53C  -   0.056976
MO 142:  55N  -   0.474375  and  54N  -   0.557951
MO 141:  55N  -   0.940072  and  53C  -   0.003333
MO 140:  54N  -   0.770064  and  53C  -   0.237362
MO 139:  54N  -   0.712964  and  53C  -   0.310828
MO 138:  53C  -   0.491078  and  42C  -   0.568846
MO 137:  52O  -   0.612122  and  50N  -   0.403005
MO 136:  52O  -   0.619795  and  50N  -   0.392706
MO 135:  51O  -   0.615555  and  50N  -   0.396973
MO 134:  51O  -   0.614426  and  50N  -   0.402066
MO 133:  50N  -   0.690378  and  45C  -   0.366766
MO 132:  49H  -   0.457854  and  44C  -   0.539627
MO 131:  48H  -   0.458835  and  43C  -   0.547000
MO 130:  47H  -   0.471215  and  41C  -   0.534261
MO 129:  46H  -   0.457743  and  40C  -   0.541649
MO 128:  45C  -   0.538014  and  44C  -   0.396462
MO 127:  45C  -   0.533257  and  44C  -   0.398346
MO 126:  45C  -   0.555059  and  40C  -   0.468729
MO 125:  44C  -   0.523718  and  43C  -   0.509173
MO 124:  43C  -   0.472469  and  42C  -   0.450286
MO 123:  43C  -   0.453514  and  42C  -   0.463496
MO 122:  42C  -   0.544969  and  41C  -   0.478756
MO 121:  41C  -   0.472484  and  40C  -   0.455367
MO 120:  41C  -   0.463219  and  40C  -   0.455078
MO 119:  39C  -   0.556961  and  37C  -   0.490542
MO 118:  39C  -   0.442768  and  31C  -   0.465144
MO 117:  39C  -   0.444859  and  31C  -   0.461581
MO 116:  39C  -   0.426969  and  25N  -   0.614933
MO 115:  38H  -   0.482779  and  37C  -   0.515499
MO 114:  37C  -   0.459524  and  35C  -   0.501033
MO 113:  37C  -   0.467691  and  35C  -   0.492677
MO 112:  36H  -   0.476616  and  35C  -   0.521376
MO 111:  35C  -   0.507085  and  34C  -   0.520640
MO 110:  34C  -   0.461267  and  32C  -   0.488520
MO 109:  34C  -   0.457383  and  32C  -   0.498722
MO 108:  33H  -   0.465261  and  32C  -   0.525856
MO 107:  32C  -   0.509602  and  31C  -   0.518971
MO 106:  31C  -   0.520395  and  30C  -   0.512843
MO 105:  30C  -   0.473672  and  28C  -   0.480758
MO 104:  30C  -   0.459764  and  28C  -   0.487212
MO 103:  30C  -   0.569339  and  19C  -   0.502978
MO 102:  29H  -   0.479200  and  28C  -   0.519132
MO 101:  28C  -   0.543440  and  26C  -   0.497251
MO 100:  27H  -   0.482657  and  26C  -   0.528425
MO  99:  26C  -   0.392925  and  25N  -   0.584184
MO  98:  26C  -   0.407075  and  25N  -   0.569154
MO  97:  25N  -   0.942445  and  19C  -   0.000032
MO  96:  24H  -   0.479170  and  22C  -   0.520581
MO  95:  23H  -   0.480681  and  22C  -   0.523579
MO  94:  22C  -   0.506475  and  20C  -   0.503760
MO  93:  22C  -   0.499478  and  20C  -   0.511479
MO  92:  21H  -   0.485914  and  20C  -   0.520045
MO  91:  20C  -   0.506571  and   4C  -   0.545615
MO  90:  19C  -   0.492209  and  17C  -   0.566652
MO  89:  18H  -   0.469422  and  17C  -   0.537946
MO  88:  17C  -   0.594368  and  14C  -   0.447800
MO  87:  17C  -   0.355520  and   0N  -   0.684923
MO  86:  16H  -   0.485497  and  14C  -   0.519378
MO  85:  15H  -   0.475494  and  14C  -   0.530130
MO  84:  14C  -   0.513312  and   6C  -   0.538773
MO  83:  13H  -   0.467836  and  11C  -   0.540562
MO  82:  12H  -   0.458503  and  11C  -   0.551837
MO  81:  11C  -   0.563582  and   8C  -   0.475332
MO  80:  11C  -   0.346921  and   0N  -   0.687898
MO  79:  10H  -   0.483091  and   8C  -   0.523729
MO  78:   9H  -   0.492065  and   8C  -   0.514104
MO  77:   8C  -   0.507105  and   6C  -   0.549009
MO  76:   7H  -   0.488241  and   6C  -   0.515669
MO  75:   6C  -   0.521428  and   4C  -   0.539609
MO  74:   5H  -   0.485841  and   4C  -   0.516615
MO  73:   4C  -   0.504577  and   1C  -   0.539155
MO  72:   3H  -   0.467011  and   1C  -   0.539883
MO  71:   2H  -   0.465126  and   1C  -   0.539627
MO  70:   1C  -   0.344197  and   0N  -   0.693837
Localized MO's were stored in: /scratch/summit/jvalegre@colostate.edu/9354844/S-TS-I_9_DLPNO.loc

Localizing the core orbitals
------------------------------------------------------------------------------
                           ORCA ORBITAL LOCALIZATION
------------------------------------------------------------------------------

Input orbitals are from                  ... /scratch/summit/jvalegre@colostate.edu/9354844/S-TS-I_9_DLPNO.loc
Output orbitals are to                   ... /scratch/summit/jvalegre@colostate.edu/9354844/S-TS-I_9_DLPNO.loc
Max. number of iterations                ... 128
Localizations seeded randomly            ... off
Convergence tolerance                    ... 1.000e-06
Using relative localization threshhold   ... 1.000e-08
Treshold for strong local MOs            ... 9.500e-01
Treshold for bond MOs                    ... 8.500e-01
Operator                                 ... 0
Orbital range for localization           ... 0 to 56
Localization criterion                   ... FOSTER-BOYS (AUGMENTED HESSIAN)
Doing the dipole integrals     ... o.k.
Initial value of the localization sum :  4579.376312
ITERATION   0 : L= 4579.3765575133 DL=  2.46e-04 (AVERGE_DL)=    0.0003925245 
ITERATION   1 : L= 4579.3765575133 DL=  0.00e+00 (AVERGE_DL)=    0.0000000000 
LOCALIZATION SUM CONVERGED

------------------------------------------------------
AUGMENTED HESSIAN OPTIMIZATION OF FOSTER-BOYS ORBITALS
------------------------------------------------------

Spin operator:           0
Orbital window:          0 to 56
Number of iterations:    128
Gradient tolerance:      1.000e-06
Number of pairs:         1596
Davidson threshold:      2000
Diagonalization method:  LAPACK
Iter:    0   L: 4579.3765575132   Grad. norm: 1.755270e-02
   *** Likely close to a maximum now. ***
       Augmented Hessian eigenvalues:  2.53e-07 -2.14e+01 -2.14e+01 -2.18e+01 ... 
Iter:    1   L: 4579.3765576399   Grad. norm: 5.137315e-12
LOCALIZATION HAS CONVERGED.

Eigenvalues of the Hessian:
  0 -2.140e+01
  1 -2.143e+01
  2 -2.183e+01
  3 -2.206e+01
  4 -2.234e+01
  5 -2.278e+01
  6 -2.329e+01
  7 -2.461e+01
  8 -2.539e+01
  9 -2.570e+01
    ...


------------------------------------------------------------------------------- 
                    LOCALIZED MOLECULAR ORBITAL COMPOSITIONS                   
------------------------------------------------------------------------------- 

The Mulliken populations for each LMO on each atom are computed
The LMO`s will be ordered according to atom index and type
  (A) Strongly localized MO`s have populations of >=0.950 on one atom
  (B) Two center bond orbitals have populations of >=0.850 on two atoms
  (C) Other MO`s are considered to be `delocalized`

FOUND  -  57 strongly local MO`s
       -   0 two center bond MO`s
       -   0 significantly delocalized MO`s

Rather strongly localized orbitals:
MO  56: 100O  -   0.999581
MO  55:  99O  -   0.999553
MO  54:  98C  -   0.999970
MO  53:  92C  -   0.999018
MO  52:  91C  -   0.999218
MO  51:  90C  -   0.999246
MO  50:  89C  -   0.999224
MO  49:  88C  -   0.999095
MO  48:  87C  -   0.998838
MO  47:  85O  -   0.999566
MO  46:  84O  -   0.999586
MO  45:  83N  -   0.999408
MO  44:  81C  -   0.999989
MO  43:  79C  -   0.998552
MO  42:  73C  -   0.998785
MO  41:  72C  -   0.998955
MO  40:  71C  -   0.999160
MO  39:  70C  -   0.999126
MO  38:  69C  -   0.999191
MO  37:  68C  -   0.998925
MO  36:  62C  -   0.999803
MO  35:  61O  -   0.999502
MO  34:  58O  -   0.999569
MO  33:  56O  -   0.999566
MO  32:  55N  -   0.999782
MO  31:  54N  -   0.999241
MO  30:  53C  -   1.000180
MO  29:  52O  -   0.999564
MO  28:  51O  -   0.999558
MO  27:  50N  -   0.999148
MO  26:  45C  -   0.999043
MO  25:  44C  -   0.998998
MO  24:  43C  -   0.998917
MO  23:  42C  -   0.999014
MO  22:  41C  -   0.999078
MO  21:  40C  -   0.999011
MO  20:  39C  -   0.998968
MO  19:  37C  -   0.999091
MO  18:  35C  -   0.999214
MO  17:  34C  -   0.998952
MO  16:  32C  -   0.998959
MO  15:  31C  -   0.998480
MO  14:  30C  -   0.998818
MO  13:  28C  -   0.998848
MO  12:  26C  -   1.000462
MO  11:  25N  -   0.998928
MO  10:  22C  -   0.999644
MO   9:  20C  -   0.999472
MO   8:  19C  -   0.998243
MO   7:  17C  -   0.998992
MO   6:  14C  -   0.999256
MO   5:  11C  -   0.999278
MO   4:   8C  -   0.999089
MO   3:   6C  -   0.998567
MO   2:   4C  -   0.998625
MO   1:   1C  -   0.999347
MO   0:   0N  -   0.999288
Localized MO's were stored in: /scratch/summit/jvalegre@colostate.edu/9354844/S-TS-I_9_DLPNO.loc

Warning: reference  - re-canonicalizations have been set to INT 1 VIRT 1
Warning: internal orbitals are localized - no re-canonicalization of internal orbitals
Warning: UsePNO is turned on - no re-canonicalization of internal and virtual orbitals

--------------------------
CLOSED-SHELL FOCK OPERATOR
--------------------------

MDCI_FockCPCM: ediel   =  -0.053061052000
MDCI_FockCPCM: <VCPCM> =   0.357531718972
Entering RIJCOSX section for the Fock matrix
Trying to retrieve the full J-matrix              ... done
Updating the Fock matrix                          ... done
Making the frozen core Coulomb matrix             ... done
Retrieving the full K-matrix                      ... done
Calculating the frozen core K-matrix              ... done
Updating the Fock matrix                          ... done
Time needed for Fock operator              ...           41.424 sec
Reference energy                           ...  -2616.486116755

--------------
DLPNO SETTINGS (2015 fully linear scaling implementation)
--------------

TCutMKN:           1.000e-03
TCutPAO:           1.000e-03
TCutPNO:           3.330e-07
TCutPNOSingles:    9.990e-09
TCutEN:            9.700e-01
TCutPAOExt:        1.000e-01
TCutPairs:         1.000e-04
TCutPre:           1.000e-06
TCutOSV:           1.000e-06
TCutDOij:          1.000e-05
TCutDO:            1.000e-02
TCutC:             1.000e-04
TCutCPAO:          1.000e-03
TCutCMO:           1.000e-03
TScaleDOMP2PreScr: 2.000e+00
TScaleMKNMP2PreScr:1.000e+01
TScalePNOMP2PreScr:1.000e+00
PAO overlap thresh 1.000e-08
Using PNOs for Singles Fock computation
Use new domains
Use fully linear algorithm
TCutTNO:           1.000e-09
TCutMP2Pairs:      1.000e-05
TCutDOStrong:      2.000e-03
TCutMKNStrong:     1.000e-02
TCutMKNWeak:       1.000e-01
TCutDOWeak:        4.000e-03
NTCutTNO:          1

--------------------------
Calculating differential overlap integrals ... ok
--------------------------
ELECTRON PAIR PRESCREENING
--------------------------

Dipole-based pair screening          .... used

   TCutDOij = 1.000000e-05
   TCutPre  = 1.000000e-06
   .... Finished loop over pairs

                  =====================================
                   956 OF 11026 PAIRS WERE SKIPPED 
                  =====================================

Total time spent in the prescreening                  ...     0.153 sec
sum of pair energies estimated for screened out pairs ...      -0.000069747465 Eh
Thresholds for map construction and integral transformation for crude MP2:
   TCutMKN                    ...     1.0e-02
   TCutDO                     ...     2.0e-02
   TCutPairs                  ...     1.0e-04
   TCutPNO_CrudeMP2           ...     3.3e-07
   TCutPNOSingles_CrudeMP2    ...     1.0e-08
--------------------------------
LOCAL RI TRANSFORMATION (IAVPAO)
--------------------------------

Orbital window:      57 to 204
Number of PAOs:    1018
Basis functions:   1018 (474 shells)
Aux. functions:    5937 (1751 shells)

Processing maps (0.3 sec)
Average map sizes:
   Aux shells -> MOs             140.7
   Aux shells -> PAOs           1018.0
   MOs        -> AO shells       264.8
   PAOs       -> AO shells       426.4

Calculating integrals (16.7 sec, 6507.596 MB)
Sorting integrals (21.1 sec, 6459.478 MB)
Total time for the integral transformation: 38.1 sec
--------------------------------
INITIAL GUESS AND PNO GENERATION
--------------------------------

PNO truncation parameters                   .... 
    PAOOverlapThresh   =        1.000e-08

    TCutPairs          =        1.000e-04
    TCutPNO            =        3.330e-07
    TCutPNOSingles     =        9.990e-09
    TCutMP2Pairs       =        1.000e-05
    TCutMKN            =        1.000e-02
    TCutDO             =        2.000e-02

Pair selection                          .... not used
Type of local MP2 treatment                 .... semi-local MP2
Strategy for PNO selection                  .... occupation number selection
Pair density normalization                  .... MP2 norm
Spin component scaling                      .... not used

   .... Finished loop over pairs
Making pair pair interaction lists          ... done

                       ===========================
                       1678 OF 10070 PAIRS ARE KEPT CCSD PAIRS
                       1781 OF 10070 PAIRS ARE KEPT MP2 PAIRS FOR (T)
                       6611 OF 10070 PAIRS ARE SKIPPED
                       ===========================

Total time spent in the initial guess                 ...    24.097 sec
SL-MP2 correlation energy (all non-screened pairs)    ...      -7.846535534249 Eh

Initial PNO correlation energy                        ...      -7.763910678323 Eh
sum of pair energies prescreened and skipped MP2 pairs...      -0.013110087577 Eh
sum of pair energies of crude MP2 skipped pairs only  ...      -0.013040340111 Eh
sum of MP2 pair energies for pairs that were not kept ...      -0.070757489129 Eh
sum of PNO error estimates for the kept pairs         ...      -0.011867366797 Eh
                                                          --------------------
sum of all corrections                                         -0.082694603392
Initial total correlation energy                               -7.846605281715
Thresholds for map construction and integral transformation for fine MP2 and CCSD(T) calculation:
   TCutMKN   ...     1.0e-03
   TCutDO    ...     1.0e-02
   TCutPairs ...     1.0e-04
   TCutCMO   ...     1.0e-03
   TCutCPAO  ...     1.0e-03

Thresholds for map construction and integral transformation for strong Triples:
   TCutMKN   ...     1.0e-02
   TCutDO    ...     2.0e-02
   TCutCMO   ...     1.0e-03
   TCutCPAO  ...     1.0e-03

Thresholds for map construction and integral transformation for weak Triples:
   TCutMKN   ...     1.0e-01
   TCutDO    ...     4.0e-02
   TCutCMO   ...     1.0e-03
   TCutCPAO  ...     1.0e-03

--------------------------------
LOCAL RI TRANSFORMATION (IAVPAO)
--------------------------------

Orbital window:      57 to 204
Number of PAOs:    1018
Basis functions:   1018 (474 shells)
Aux. functions:    5937 (1751 shells)

Processing maps (0.2 sec)
Average map sizes:
   Aux shells -> MOs              80.2
   Aux shells -> PAOs           1018.0
   MOs        -> AO shells       264.8
   PAOs       -> AO shells       426.4

Calculating integrals (13.9 sec, 3720.290 MB)
Sorting integrals (7.9 sec, 3587.406 MB)
Total time for the integral transformation: 21.9 sec
--------------------------------
INITIAL GUESS AND PNO GENERATION
--------------------------------

PNO truncation parameters                   .... 
    PAOOverlapThresh   =        1.000e-08

    TCutPairs          =        1.000e-04
    TCutPNO            =        3.330e-07
    TCutPNOSingles     =        9.990e-09
    TCutMP2Pairs       =        1.000e-05
    TCutMKN            =        1.000e-03
    TCutDO             =        1.000e-02

Pair selection                          .... not used
Type of local MP2 treatment                 .... semi-local MP2
Strategy for PNO selection                  .... occupation number selection
Pair density normalization                  .... MP2 norm
Spin component scaling                      .... not used

   .... Finished loop over pairs

 PNO Occupation Number Statistics: 
  | Av. % of trace(Dij) retained        ...  97.446379442717
  | sigma^2 in % of trace(Dij) retained ...   8.24e+00
  | Av. % of trace(Di) retained         ...  99.999374173266
  | sigma^2 in % of trace(Di) retained  ...   4.25e-08
 Distributions of % trace(Dij) recovered:
  |       >= 99.9  ...   481 ( 13.9 % of all pairs)
  |   [70.0, 80.0) ...     1 (  0.0 % of all pairs)
  |   [80.0, 90.0) ...   114 (  3.3 % of all pairs)
  |   [90.0, 99.0) ...  2112 ( 61.1 % of all pairs)
  |   [99.0, 99.9) ...   751 ( 21.7 % of all pairs)
 Distributions of % trace(Di) recovered :
  |       >= 99.9  ...   148 (100.0 % of all I-pairs )

Making pair pair interaction lists          ... done

                       ===========================
                       1678 OF 3459 PAIRS ARE KEPT
                       ===========================

Total time spent in the initial guess                 ...    52.608 sec
SL-MP2 correlation energy (all non-screened pairs)    ...      -7.845716491697 Eh

Initial PNO correlation energy                        ...      -7.775283771149 Eh
sum of pair energies estimated for screened out pairs ...      -0.013110087577 Eh
sum of MP2 pair energies for pairs that were not kept ...      -0.058332073309 Eh
sum of PNO error estimates for the kept pairs         ...      -0.012195924963 Eh
                                                          --------------------
sum of all corrections                                         -0.083638085849
Initial total correlation energy                               -7.858921856998
Thresholds for map construction and integral transformation for fine MP2 and CCSD(T) calculation:
   TCutMKN   ...     1.0e-03
   TCutDO    ...     1.0e-02
   TCutPairs ...     1.0e-04
   TCutCMO   ...     1.0e-03
   TCutCPAO  ...     1.0e-03

Time for aux screen maps:            0.033
Time for maps after fine MP2:            0.244
-----------------------------
LOCAL RI TRANSFORMATION (IJV)
-----------------------------

Orbital window:      57 to 204
Basis functions:   1018 (474 shells)
Aux. functions:    5937 (1751 shells)

Processing maps (0.0 sec)
Average map sizes:
   Aux shells -> MOs(i)           53.7
   Aux shells -> MOs(j)          148.0
   MOs        -> AO shells       264.8

Calculating integrals (10.8 sec, 362.278 MB)
Sorting integrals (1.0 sec, 356.134 MB)
Total time for the integral transformation: 11.8 sec
--------------------------------
LOCAL RI TRANSFORMATION (VABPAO)
--------------------------------

Number of PAOs:    1018
Basis functions:   1018 (474 shells)
Aux. functions:    5937 (1751 shells)

Processing maps (0.0 sec)
Average map sizes:
   Aux shells -> PAOs            697.1
   PAOs       -> AO shells       426.4

Calculating integrals (62.2 sec, 45979.594 MB)
Finished


-------------------------------------
Pair Pair Term precalculation with     
RI-(ij|mn) and (im|jn) transformation  
ON THE FLY                             
-------------------------------------

   IBatch   1 (of   3)              ... done (   74.719 sec)
   IBatch   2 (of   3)              ... done (   96.887 sec)
   IBatch   3 (of   3)              ... done (  114.328 sec)
Total EXT                           ...         286.004 sec

---------------------
RI-PNO TRANSFORMATION
---------------------

Total Number of PNOs                   ... 38346
Average number of PNOs per pair        ...    22
Maximal number of PNOs per pair        ...    58
   #pairs with  1 -  5 PNOs   :    0
   #pairs with  6 - 10 PNOs   :  103
   #pairs with 11 - 15 PNOs   :  346
   #pairs with 16 - 20 PNOs   :  215
   #pairs with 21 - 25 PNOs   :  389
   #pairs with 26 - 30 PNOs   :  374
   #pairs with 31 - 35 PNOs   :  127
   #pairs with 36 - 40 PNOs   :   30
   #pairs with 41 - 45 PNOs   :   36
   #pairs with 46 - 50 PNOs   :   51
   #pairs with 51 - 55 PNOs   :    6
   #pairs with 56 - 60 PNOs   :    1

Generation of (ij|ab)[P] integrals            ... on
Generation of (ia|bc)[P],(ja|bc)[P] integrals ... on
Storage of 3 and 4 external integrals         ... on
Generation of ALL (ka|bc)[P] integrals        ... on
Keep RI integrals in memory                   ... off

Ibatch:  1 (of  1)
Starting 2-4 index PNO integral generation ... done

Timings:
Total PNO integral transformation time     ...        207.887 sec
Size of the 3-external file                ...       242 MB
Size of the 4-external file                ...      1051 MB
Size of the IKJL file                      ...         1 MB
Size of the all 3-external file            ...      9341 MB
Size of the 1-external file                ...        71 MB

Making pair/pair overlap matrices          ... done (   34.607 sec)
Size of the pair overlap file              ... 4778 MB
Redoing the guess amplitudes               ... done (    0.303 sec)

-------------------------
FINAL STARTUP INFORMATION
-------------------------

E(0)                                       ...  -2616.486116755
E(SL-MP2)                                  ...     -7.845716492
E(SL-MP2) including corrections            ...     -7.858921857
Initial E(tot)                             ...  -2624.345038612
<T|T>                                      ...      2.420121538
Number of pairs included                   ... 1678
Total number of pairs                      ... 11026

------------------------------------------------
                  RHF COUPLED CLUSTER ITERATIONS
------------------------------------------------

Number of PNO amplitudes to be optimized   ...      1019420
Number of non-PNO amplitudes               ...   1109105982
Untruncated number of regular amplitudes   ...   7287844194

Iter       E(tot)           E(Corr)          Delta-E          Residual     Time
  0  -2624.345111183     -7.775356343      0.070360149      0.022202943   60.73
                           *** Turning on DIIS ***
  1  -2624.697286236     -8.127531395     -0.352175052      0.013079688   57.36
  2  -2624.933963972     -8.364209131     -0.236677737      0.007664084   57.20
  3  -2624.978619338     -8.408864497     -0.044655366      0.004326805   56.97
  4  -2624.994392931     -8.424638090     -0.015773593      0.002070233   54.84
  5  -2625.000575107     -8.430820266     -0.006182176      0.001418099   57.69
  6  -2625.002171874     -8.432417033     -0.001596767      0.000877882   56.01
  7  -2625.002335163     -8.432580322     -0.000163289      0.000595298   55.84
  8  -2625.002503538     -8.432748697     -0.000168375      0.000388512   55.73
  9  -2625.002457063     -8.432702223      0.000046474      0.000213862   53.06
 10  -2625.002496634     -8.432741793     -0.000039570      0.000097792   54.14
 11  -2625.002474926     -8.432720086      0.000021707      0.000045597   53.38
 12  -2625.002472154     -8.432717314      0.000002772      0.000021057   52.85
 13  -2625.002465970     -8.432711129      0.000006185      0.000013351   53.01
 14  -2625.002463456     -8.432708615      0.000002514      0.000006287   54.83
               --- The Coupled-Cluster iterations have converged ---

----------------------
COUPLED CLUSTER ENERGY
----------------------

E(0)                                       ...  -2616.486116755
E(CORR)(strong-pairs)                      ...     -8.432708615
E(CORR)(weak-pairs)                        ...     -0.083638086
E(CORR)(corrected)                         ...     -8.516346701
E(TOT)                                     ...  -2625.002463456
Singles Norm <S|S>**1/2                    ...      0.230823740  
T1 diagnostic                              ...      0.013416357  

------------------
LARGEST AMPLITUDES
------------------
  93->205  93->205       0.068076
  94->205  94->205       0.067670
  94->205  93->205       0.060231
 133->207 133->207       0.054401
 175->206 175->206       0.053238
 136->205 136->205       0.052812
 134->205 134->205       0.052365
 135->205 135->205       0.051751
 137->205 137->205       0.051191
 180->205 180->205       0.050576
  87->205  87->205       0.050487
 180->205  -1-> -1       0.048909
 178->205 178->205       0.047885
 138->207 138->207       0.047297
 197->207 197->207       0.046841
 148->205 148->205       0.046815


-------------------------------------------
DLPNO BASED TRIPLES CORRECTION
-------------------------------------------

Singles multiplier          ...  1.000000
TCutTNO                     ... 1.000e-09
TCutMP2Pairs                ... 1.000e-05
TCutDOStrong                ... 2.000e-02
TCutMKNStrong               ... 1.000e-02
TCutDOWeak                  ... 4.000e-02
TCutMKNWeak                 ... 1.000e-01

Fragment selection                          .... not used
Number of Triples that are to be computed   ...     18696

 . . . . . . . . .
10% done  
20% done  
30% done               (    205.420 sec)
 . . . . . . . . .
40% done  
50% done  
60% done  
70% done  
80% done  
90% done               (    176.284 sec)
Triples timings:
Total time for T0               ...   398.757 sec
Total time for Iterative (T)    ...     0.000 sec
Total time of overall (T)       ...   449.341 sec

Triples List generation         ...     0.000 sec
TNO generation                  ...    16.446 sec
Pair density generation         ...     0.047 sec
Look up tables                  ...     0.002 sec
Generating 3-index integrals    ...   282.609 sec
  Make 4-ind.int. from 3-ind.int...    25.728 sec
  Projecting amplitudes (D + S) ...    52.925 sec
  Downprojecting integrals      ...     0.005 sec
  Energy contr. (sum over a,b,c)...     6.062 sec
Fitting ET(->0)                 ...     0.000 sec

Everything after 3-index        ...    99.095 sec

Timing details:
 TNO integrals                  ...   305.060 sec
   Reading 3-index integrals    ...   175.137 sec
   Sorting integrals            ...    23.594 sec
       Sorting integrals 1      ...     0.007 sec
       Sorting integrals 2      ...    14.208 sec
       Sorting integrals 3      ...     1.751 sec
       Sorting integrals 4      ...     0.541 sec
       Sorting integrals 5      ...     1.015 sec
       Sorting integrals 6      ...     6.071 sec
   Calculating local VM**-1/2   ...     2.812 sec
   Orthogonal. integrals        ...     2.971 sec
   Multipl. 3-index integrals   ...   100.547 sec
   All concerning IRIab (w/TNO) ...    12.535 sec

 Calculate W0/W1                ...    14.339 sec
 W 3-ext contribution           ...     5.630 sec
 W 3-int contribution           ...     4.617 sec
 Sorting W                      ...     3.690 sec

 V exchange contribution        ...     2.541 sec

 Timings for Triples without generation
     of 3-index integrals       ...    99.085 sec
       0 weak pairs             ...    65.997 sec
       1 weak pair              ...    33.088 sec
       2 weak pairs             ...     0.000 sec
       3 weak pairs             ...     0.000 sec
  Extra time for extrapolation  ...     0.000 sec

Number of Triples   (0, 1, 2, 3 weak pairs; overall):  10341    8355       0       0  ( 18696)
Number of Atoms     (0, 1, 2, 3 weak pairs; overall):   16.5    13.8     0.0     0.0  (   101)
Number of PAOs      (0, 1, 2, 3 weak pairs; overall):  175.2   156.3     0.0     0.0  (  1018)
Number of AuxFcns   (0, 1, 2, 3 weak pairs; overall):  491.2   395.0     0.0     0.0  (  5937)
Number of TNOs      (0, 1, 2, 3 weak pairs         ):   60.1    47.3     0.0     0.0
Aver. Number of NTNO, Atoms, PAOs, AuxFcns / Triples:  18696    54.4    15.3   166.8   448.2

Triples Correction (T)                     ...     -0.322581886
Final correlation energy                   ...     -8.838928587
E(CCSD)                                    ...  -2625.002463456
E(CCSD(T))                                 ...  -2625.325045342


Maximum memory used throughout the entire calculation: 3981.8 MB


------------------------------------------------------------------------------- 
                                     TIMINGS                                   
------------------------------------------------------------------------------- 


Total execution time                   ...     2152.493 sec

Localization of occupied MO's          ...       38.776 sec (  1.8%)
Fock Matrix Formation                  ...       41.424 sec (  1.9%)
Global overlap, Fock, MKN matrices     ...        1.332 sec (  0.1%)
Differential overlap integrals         ...        3.898 sec (  0.2%)
Organizing maps                        ...        0.654 sec (  0.0%)
RI 3-index integral generations        ...      134.095 sec (  6.2%)
RI-PNO integral transformation         ...      570.770 sec ( 26.5%)
Initial Guess                          ...       77.186 sec (  3.6%)
DIIS Solver                            ...       16.051 sec (  0.7%)
State Vector Update                    ...        0.204 sec (  0.0%)
Sigma-vector construction              ...      817.387 sec ( 38.0%)
  <0|H|D>                              ...        0.001 sec (  0.0% of sigma)
  <D|H|D>(0-ext)                       ...       88.438 sec ( 10.8% of sigma)
  <D|H|D>(2-ext Fock)                  ...        0.044 sec (  0.0% of sigma)
  <D|H|D>(2-ext)                       ...       26.323 sec (  3.2% of sigma)
  <D|H|D>(4-ext)                       ...        8.506 sec (  1.0% of sigma)
  <D|H|D>(4-ext-corr)                  ...       67.054 sec (  8.2% of sigma)
  CCSD doubles correction              ...        4.513 sec (  0.6% of sigma)
  <S|H|S>                              ...       27.008 sec (  3.3% of sigma)
  <S|H|D>(1-ext)                       ...       49.716 sec (  6.1% of sigma)
  <D|H|S>(1-ext)                       ...        0.110 sec (  0.0% of sigma)
  <S|H|D>(3-ext)                       ...        8.122 sec (  1.0% of sigma)
  CCSD singles correction              ...        0.004 sec (  0.0% of sigma)
  Fock-dressing                        ...      147.639 sec ( 18.1% of sigma)
  Singles amplitudes                   ...      280.576 sec ( 34.3% of sigma)
  (ik|jl)-dressing                     ...       51.706 sec (  6.3% of sigma)
  (ij|ab),(ia|jb)-dressing             ...       19.480 sec (  2.4% of sigma)
  Pair energies                        ...        0.042 sec (  0.0% of sigma)
Total Time for computing (T)           ...      449.510 sec ( 20.9% of ALL)

----- Orbital basis set information -----
Your calculation utilizes the basis: cc-pVTZ 
       H, B-Ne : Obtained from the ccRepo (grant-hill.group.shef.ac.uk/ccrepo) Feb. 2017
                 T. H. Dunning, Jr., J. Chem. Phys. 90, 1007 (1989)
            He : Obtained from the ccRepo (grant-hill.group.shef.ac.uk/ccrepo) Feb. 2017
                 D. E. Woon, T. H. Dunning, Jr., J. Chem. Phys. 100, 2975 (1994)
  Li-Be, Na-Mg : Obtained from the ccRepo (grant-hill.group.shef.ac.uk/ccrepo) Feb. 2017
                 B. P. Prascher, D. E. Woon, K. A. Peterson, T. H. Dunning, Jr., A. K. Wilson, Theor. Chem. Acc. 128, 69 (2011)
         Al-Ar : Obtained from the ccRepo (grant-hill.group.shef.ac.uk/ccrepo) Feb. 2017
                 D. E. Woon, T. H. Dunning, Jr., J. Chem. Phys. 98, 1358 (1993)
            Ca : Obtained from the Peterson Research Group Website (tyr0.chem.wsu.edu/~kipeters) Feb. 2017
                 J. Koput, K. A. Peterson, J. Phys. Chem. 106, 9595 (2002)
         Sc-Zn : Obtained from the ccRepo (grant-hill.group.shef.ac.uk/ccrepo) Feb. 2017
                 N. B. Balabanov, K. A. Peterson, J. Chem. Phys. 123, 064107 (2005)
                 N. B. Balabanov, K. A. Peterson, J. Chem. Phys. 125, 074110 (2006)
         Ga-Kr : Obtained from the ccRepo (grant-hill.group.shef.ac.uk/ccrepo) Feb. 2017
                 A. K. Wilson, D. E. Woon, K. A. Peterson, T. H. Dunning, Jr., J. Chem. Phys. 110, 7667 (1999)
             Y : Obtained from the ccRepo (grant-hill.group.shef.ac.uk/ccrepo) Feb. 2017
                 K. A. Peterson, D. Figgen, M. Dolg, H. Stoll, J. Chem. Phys. 126, 124101 (2007)
        Ag, Au : Obtained from the Peterson Research Group Website (tyr0.chem.wsu.edu/~kipeters) Feb. 2017
                 K. A. Peterson, C. Puzzarini, Theor. Chem. Acc. 114, 283 (2005)

----- AuxJ basis set information -----
Your calculation utilizes the auxiliary basis: def2/JK
   H-Ba, Hf-Rn: F. Weigend, J. Comput. Chem. 29, 167 (2008).

----- AuxC basis set information -----
Your calculation utilizes the auxiliary basis: cc-pVTZ/C 
  Obtained from the EMSL Basis Set Exchange (bse.pnl.gov) Feb. 2017
  H-He, B-F, Al-Ar, Ga-Kr : F. Weigend, A. Kohn, C. Hattig, J. Chem. Phys. 116, 3175 (2002)
             Li-Be, Na-Mg : C. Haettig, Phys. Chem. Chem. Phys. 7, 59 (2005)
                       Ne : C. Haettig, Phys. Chem. Chem. Phys. 7, 59 (2005)
                            F. Weigend, A. Kohn, C. Hattig, J. Chem. Phys. 116, 3175 (2002)
                    Sc-Zn : J. G. Hill, J. A. Platts, J. Chem. Phys. 128, 044104 (2008)

----- AuxJK basis set information -----
Your calculation utilizes the auxiliary basis: def2/JK
   H-Ba, Hf-Rn: F. Weigend, J. Comput. Chem. 29, 167 (2008).

All done

                     -----------------------------------------
                     Extrapolated Energy 2 Basis=     cc-pVTZ
                     -----------------------------------------


Checking for AutoStart:
The File: /scratch/summit/jvalegre@colostate.edu/9354844/S-TS-I_9_DLPNO.gbw exists
Trying to determine its content:
     ... Fine, the file contains calculation information
     ... Fine, the calculation information was read
     ... Fine, the file contains a basis set
     ... Fine, the basis set was read
     ... Fine, the file contains a geometry
     ... Fine, the geometry was read
     ... Fine, the file contains a set of orbitals
     ... Fine, the orbitals can be read
     => possible old guess file was deleted
     => GBW file was renamed to GES file
     => GES file is set as startup file
     => Guess is set to MORead
     ... now leaving AutoStart



           ************************************************************
           *        Program running with 24 parallel MPI-processes    *
           *              working on a common directory               *
           ************************************************************
 One Electron integrals                  ... done
 Pre-screening matrix                    ... done


           ************************************************************
           *        Program running with 24 parallel MPI-processes    *
           *              working on a common directory               *
           ************************************************************
------------
SCF SETTINGS
------------
Hamiltonian:
 Ab initio Hamiltonian  Method          .... Hartree-Fock(GTOs)
 RI-approximation to the Coulomb term is turned on
   Number of auxiliary basis functions  .... 5097
   RIJ-COSX (HFX calculated with COS-X)).... on


General Settings:
 Integral files         IntName         .... /scratch/summit/jvalegre@colostate.edu/9354844/S-TS-I_9_DLPNO
 Hartree-Fock type      HFTyp           .... RHF
 Total Charge           Charge          ....    0
 Multiplicity           Mult            ....    1
 Number of Electrons    NEL             ....  410
 Basis Dimension        Dim             .... 2326
 Nuclear Repulsion      ENuc            ....   8737.3447359564 Eh

Convergence Acceleration:
 DIIS                   CNVDIIS         .... on
   Start iteration      DIISMaxIt       ....    12
   Startup error        DIISStart       ....  0.200000
   # of expansion vecs  DIISMaxEq       ....     5
   Bias factor          DIISBfac        ....   1.050
   Max. coefficient     DIISMaxC        ....  10.000
 Newton-Raphson         CNVNR           .... off
 SOSCF                  CNVSOSCF        .... on
   Start iteration      SOSCFMaxIt      ....   150
   Startup grad/error   SOSCFStart      ....  0.003300
 Level Shifting         CNVShift        .... on
   Level shift para.    LevelShift      ....    0.2500
   Turn off err/grad.   ShiftErr        ....    0.0010
 Zerner damping         CNVZerner       .... off
 Static damping         CNVDamp         .... on
   Fraction old density DampFac         ....    0.7000
   Max. Damping (<1)    DampMax         ....    0.9800
   Min. Damping (>=0)   DampMin         ....    0.0000
   Turn off err/grad.   DampErr         ....    0.1000
 Fernandez-Rico         CNVRico         .... off

SCF Procedure:
 Maximum # iterations   MaxIter         ....   500
 SCF integral mode      SCFMode         .... Direct
[...]
                                                          --------------------
sum of all corrections                                         -0.110155813601
Initial total correlation energy                               -9.701969762291
Thresholds for map construction and integral transformation for fine MP2 and CCSD(T) calculation:
   TCutMKN   ...     1.0e-03
   TCutDO    ...     1.0e-02
   TCutPairs ...     1.0e-04
   TCutCMO   ...     1.0e-03
   TCutCPAO  ...     1.0e-03

Thresholds for map construction and integral transformation for strong Triples:
   TCutMKN   ...     1.0e-02
   TCutDO    ...     2.0e-02
   TCutCMO   ...     1.0e-03
   TCutCPAO  ...     1.0e-03

Thresholds for map construction and integral transformation for weak Triples:
   TCutMKN   ...     1.0e-01
   TCutDO    ...     4.0e-02
   TCutCMO   ...     1.0e-03
   TCutCPAO  ...     1.0e-03

--------------------------------
LOCAL RI TRANSFORMATION (IAVPAO)
--------------------------------

Orbital window:      57 to 204
Number of PAOs:    2326
Basis functions:   2326 (834 shells)
Aux. functions:    5937 (1751 shells)

Processing maps (0.5 sec)
Average map sizes:
   Aux shells -> MOs              87.1
   Aux shells -> PAOs           2326.0
   MOs        -> AO shells       602.9
   PAOs       -> AO shells       791.0

Calculating integrals (54.6 sec, 9236.474 MB)
Sorting integrals (28.6 sec, 9000.756 MB)
Total time for the integral transformation: 83.7 sec
--------------------------------
INITIAL GUESS AND PNO GENERATION
--------------------------------

PNO truncation parameters                   .... 
    PAOOverlapThresh   =        1.000e-08

    TCutPairs          =        1.000e-04
    TCutPNO            =        3.330e-07
    TCutPNOSingles     =        9.990e-09
    TCutMP2Pairs       =        1.000e-05
    TCutMKN            =        1.000e-03
    TCutDO             =        1.000e-02

Pair selection                          .... not used
Type of local MP2 treatment                 .... semi-local MP2
Strategy for PNO selection                  .... occupation number selection
Pair density normalization                  .... MP2 norm
Spin component scaling                      .... not used

   .... Finished loop over pairs

 PNO Occupation Number Statistics: 
  | Av. % of trace(Dij) retained        ...  97.135703236882
  | sigma^2 in % of trace(Dij) retained ...   8.52e+00
  | Av. % of trace(Di) retained         ...  99.998907950551
  | sigma^2 in % of trace(Di) retained  ...   1.66e-07
 Distributions of % trace(Dij) recovered:
  |       >= 99.9  ...   451 ( 12.3 % of all pairs)
  |   [70.0, 80.0) ...     3 (  0.1 % of all pairs)
  |   [80.0, 90.0) ...   116 (  3.2 % of all pairs)
  |   [90.0, 99.0) ...  2417 ( 66.0 % of all pairs)
  |   [99.0, 99.9) ...   676 ( 18.5 % of all pairs)
 Distributions of % trace(Di) recovered :
  |       >= 99.9  ...   148 (100.0 % of all I-pairs )

Making pair pair interaction lists          ... done

                       ===========================
                       1749 OF 3663 PAIRS ARE KEPT
                       ===========================

Total time spent in the initial guess                 ...   215.389 sec
SL-MP2 correlation energy (all non-screened pairs)    ...      -9.699836764869 Eh

Initial PNO correlation energy                        ...      -9.602467487482 Eh
sum of pair energies estimated for screened out pairs ...      -0.013405375924 Eh
sum of MP2 pair energies for pairs that were not kept ...      -0.065825869613 Eh
sum of PNO error estimates for the kept pairs         ...      -0.031923682258 Eh
                                                          --------------------
sum of all corrections                                         -0.111154927795
Initial total correlation energy                               -9.713622415277
Thresholds for map construction and integral transformation for fine MP2 and CCSD(T) calculation:
   TCutMKN   ...     1.0e-03
   TCutDO    ...     1.0e-02
   TCutPairs ...     1.0e-04
   TCutCMO   ...     1.0e-03
   TCutCPAO  ...     1.0e-03

Time for aux screen maps:            0.085
Time for maps after fine MP2:            0.537
-----------------------------
LOCAL RI TRANSFORMATION (IJV)
-----------------------------

Orbital window:      57 to 204
Basis functions:   2326 (834 shells)
Aux. functions:    5937 (1751 shells)

Processing maps (0.0 sec)
Average map sizes:
   Aux shells -> MOs(i)           58.3
   Aux shells -> MOs(j)          148.0
   MOs        -> AO shells       602.9

Calculating integrals (37.2 sec, 393.581 MB)
Sorting integrals (1.2 sec, 389.580 MB)
Total time for the integral transformation: 38.7 sec
--------------------------------
LOCAL RI TRANSFORMATION (VABPAO)
--------------------------------

Number of PAOs:    2326
Basis functions:   2326 (834 shells)
Aux. functions:    5937 (1751 shells)

Processing maps (0.1 sec)
Average map sizes:
   Aux shells -> PAOs           1714.0
   PAOs       -> AO shells       791.0

Calculating integrals (842.2 sec, 275361.616 MB)
Finished


-------------------------------------
Pair Pair Term precalculation with     
RI-(ij|mn) and (im|jn) transformation  
ON THE FLY                             
-------------------------------------

   IBatch   1 (of   9)              ... done (  820.810 sec)
   IBatch   2 (of   9)              ... done (  912.656 sec)
   IBatch   3 (of   9)              ... done (  759.198 sec)
   IBatch   4 (of   9)              ... done ( 1341.917 sec)
   IBatch   5 (of   9)              ... done ( 1045.816 sec)
   IBatch   6 (of   9)              ... done ( 1959.043 sec)
   IBatch   7 (of   9)              ... done ( 2606.587 sec)
   IBatch   8 (of   9)              ... done ( 4398.756 sec)
   IBatch   9 (of   9)              ... done ( 2820.108 sec)
Total EXT                           ...       16664.891 sec

---------------------
RI-PNO TRANSFORMATION
---------------------

Total Number of PNOs                   ... 56263
Average number of PNOs per pair        ...    32
Maximal number of PNOs per pair        ...    85
   #pairs with  1 -  5 PNOs   :    0
   #pairs with  6 - 10 PNOs   :   86
   #pairs with 11 - 15 PNOs   :  225
   #pairs with 16 - 20 PNOs   :  273
   #pairs with 21 - 25 PNOs   :  109
   #pairs with 26 - 30 PNOs   :  172
   #pairs with 31 - 35 PNOs   :  226
   #pairs with 36 - 40 PNOs   :   99
   #pairs with 41 - 45 PNOs   :  167
   #pairs with 46 - 50 PNOs   :  149
   #pairs with 51 - 55 PNOs   :   87
   #pairs with 56 - 60 PNOs   :   56
   #pairs with 61 - 65 PNOs   :   29
   #pairs with 66 - 70 PNOs   :   22
   #pairs with 71 - 75 PNOs   :   33
   #pairs with 76 - 80 PNOs   :   12
   #pairs with 81 - 85 PNOs   :    4

Generation of (ij|ab)[P] integrals            ... on
Generation of (ia|bc)[P],(ja|bc)[P] integrals ... on
Storage of 3 and 4 external integrals         ... on
Generation of ALL (ka|bc)[P] integrals        ... on
Keep RI integrals in memory                   ... off

Ibatch:  1 (of  2)
Starting 2-4 index PNO integral generation ... done

Ibatch:  2 (of  2)
Starting 2-4 index PNO integral generation ... done

Timings:
Total PNO integral transformation time     ...       8845.952 sec
Size of the 3-external file                ...       853 MB
Size of the 4-external file                ...      5798 MB
Size of the IKJL file                      ...         1 MB
Size of the all 3-external file            ...     36043 MB
Size of the 1-external file                ...       116 MB

Making pair/pair overlap matrices          ... done (  338.018 sec)
Size of the pair overlap file              ... 11691 MB
Redoing the guess amplitudes               ... done (    0.556 sec)

-------------------------
FINAL STARTUP INFORMATION
-------------------------

E(0)                                       ...  -2617.154859753
E(SL-MP2)                                  ...     -9.699836765
E(SL-MP2) including corrections            ...     -9.713622415
Initial E(tot)                             ...  -2626.868482168
<T|T>                                      ...      2.709162253
Number of pairs included                   ... 1749
Total number of pairs                      ... 11026

------------------------------------------------
                  RHF COUPLED CLUSTER ITERATIONS
------------------------------------------------

Number of PNO amplitudes to be optimized   ...      2292667
Number of non-PNO amplitudes               ...   7868123109
Untruncated number of regular amplitudes   ...  49602015666

Iter       E(tot)           E(Corr)          Delta-E          Residual     Time
  0  -2626.868645031     -9.602630351      0.097206414      0.022522416 5233.46
                           *** Turning on DIIS ***
  1  -2627.100162584     -9.834147903     -0.231517552      0.012296245 2730.70
  2  -2627.335251760    -10.069237079     -0.235089176      0.006943801 2460.03
  3  -2627.385303619    -10.119288938     -0.050051859      0.003814457 1552.77
  4  -2627.401000338    -10.134985657     -0.015696719      0.001977516 1556.77
  5  -2627.406415786    -10.140401105     -0.005415448      0.001254616 1526.55
  6  -2627.407876386    -10.141861705     -0.001460600      0.000756693 1551.26
  7  -2627.408104507    -10.142089826     -0.000228121      0.000539197 1516.06
  8  -2627.408219150    -10.142204470     -0.000114643      0.000361876 1426.74
  9  -2627.408147578    -10.142132897      0.000071572      0.000193201 1470.67
 10  -2627.408191308    -10.142176627     -0.000043730      0.000090874 1480.27
 11  -2627.408178188    -10.142163507      0.000013120      0.000041716 1491.11
 12  -2627.408178114    -10.142163434      0.000000074      0.000019570 1631.10
 13  -2627.408171239    -10.142156558      0.000006875      0.000011974 1986.57
 14  -2627.408167636    -10.142152956      0.000003603      0.000005537 2333.88
               --- The Coupled-Cluster iterations have converged ---

----------------------
COUPLED CLUSTER ENERGY
----------------------

E(0)                                       ...  -2617.154859753
E(CORR)(strong-pairs)                      ...    -10.142152956
E(CORR)(weak-pairs)                        ...     -0.111154928
E(CORR)(corrected)                         ...    -10.253307884
E(TOT)                                     ...  -2627.408167636
Singles Norm <S|S>**1/2                    ...      0.221067179  
T1 diagnostic                              ...      0.012849269  

------------------
LARGEST AMPLITUDES
------------------
  98->205  98->205       0.062697
  97->205  97->205       0.061238
 145->205 145->205       0.055681
  91->205  91->205       0.054474
 137->206 137->206       0.054005
  98->205  97->205       0.053973
 140->205 140->205       0.052281
  84->205  84->205       0.052124
  74->205  74->205       0.052108
 138->205 138->205       0.052083
 139->205 139->205       0.051408
 141->205 141->205       0.050921
 151->205 151->205       0.050307
 107->207 107->207       0.049747
 204->206 204->206       0.049551
 142->207 142->207       0.049344


-------------------------------------------
DLPNO BASED TRIPLES CORRECTION
-------------------------------------------

Singles multiplier          ...  1.000000
TCutTNO                     ... 1.000e-09
TCutMP2Pairs                ... 1.000e-05
TCutDOStrong                ... 2.000e-02
TCutMKNStrong               ... 1.000e-02
TCutDOWeak                  ... 4.000e-02
TCutMKNWeak                 ... 1.000e-01

Fragment selection                          .... not used
Number of Triples that are to be computed   ...     20526

 . . . . . . . . .             (   1092.915 sec)
 . . . . . . . . .
10% done               (   1569.782 sec)
 . . . . . . . . .
20% done  
30% done               (   1849.415 sec)
 . . . . . . . . .
40% done               (   2236.178 sec)
 . . . . . . . . .
50% done               (   2450.540 sec)
 . . . . . . . . .
60% done  
70% done  
80% done               (   2493.548 sec)
 . . . . . . . . .
90% done               (   2834.557 sec)
Triples timings:
Total time for T0               ... 14676.688 sec
Total time for Iterative (T)    ...     0.000 sec
Total time of overall (T)       ... 16675.509 sec

Triples List generation         ...     0.000 sec
TNO generation                  ...   147.511 sec
Pair density generation         ...     0.085 sec
Look up tables                  ...     0.003 sec
Generating 3-index integrals    ... 14100.407 sec
  Make 4-ind.int. from 3-ind.int...    54.322 sec
  Projecting amplitudes (D + S) ...   308.983 sec
  Downprojecting integrals      ...     0.008 sec
  Energy contr. (sum over a,b,c)...    18.662 sec
Fitting ET(->0)                 ...     0.000 sec

Everything after 3-index        ...   426.528 sec

Timing details:
 TNO integrals                  ... 14150.175 sec
   Reading 3-index integrals    ... 13266.095 sec
   Sorting integrals            ...   111.744 sec
       Sorting integrals 1      ...     0.009 sec
       Sorting integrals 2      ...    90.673 sec
       Sorting integrals 3      ...     2.718 sec
       Sorting integrals 4      ...     0.440 sec
       Sorting integrals 5      ...     1.545 sec
       Sorting integrals 6      ...    16.359 sec
   Calculating local VM**-1/2   ...     2.610 sec
   Orthogonal. integrals        ...     3.898 sec
   Multipl. 3-index integrals   ...   765.828 sec
   All concerning IRIab (w/TNO) ...    29.056 sec

 Calculate W0/W1                ...    44.484 sec
 W 3-ext contribution           ...    21.242 sec
 W 3-int contribution           ...    11.879 sec
 Sorting W                      ...    10.289 sec

 V exchange contribution        ...     8.041 sec

 Timings for Triples without generation
     of 3-index integrals       ...   426.519 sec
       0 weak pairs             ...   284.241 sec
       1 weak pair              ...   142.277 sec
       2 weak pairs             ...     0.000 sec
       3 weak pairs             ...     0.000 sec
  Extra time for extrapolation  ...     0.000 sec

Number of Triples   (0, 1, 2, 3 weak pairs; overall):  11067    9459       0       0  ( 20526)
Number of Atoms     (0, 1, 2, 3 weak pairs; overall):   17.8    14.5     0.0     0.0  (   101)
Number of PAOs      (0, 1, 2, 3 weak pairs; overall):  435.4   366.7     0.0     0.0  (  2326)
Number of AuxFcns   (0, 1, 2, 3 weak pairs; overall):  517.4   395.0     0.0     0.0  (  5937)
Number of TNOs      (0, 1, 2, 3 weak pairs         ):   89.3    59.9     0.0     0.0
Aver. Number of NTNO, Atoms, PAOs, AuxFcns / Triples:  20526    75.7    16.3   403.8   461.0

Triples Correction (T)                     ...     -0.488855504
Final correlation energy                   ...    -10.742163388
E(CCSD)                                    ...  -2627.408167636
E(CCSD(T))                                 ...  -2627.897023141


Maximum memory used throughout the entire calculation: 4282.5 MB


------------------------------------------------------------------------------- 
                                     TIMINGS                                   
------------------------------------------------------------------------------- 


Total execution time                   ...    74225.943 sec

Localization of occupied MO's          ...       53.637 sec (  0.1%)
Fock Matrix Formation                  ...      178.569 sec (  0.2%)
Global overlap, Fock, MKN matrices     ...        8.057 sec (  0.0%)
Differential overlap integrals         ...        8.598 sec (  0.0%)
Organizing maps                        ...        1.321 sec (  0.0%)
RI 3-index integral generations        ...     1125.200 sec (  1.5%)
RI-PNO integral transformation         ...    25865.823 sec ( 34.8%)
Initial Guess                          ...      356.871 sec (  0.5%)
DIIS Solver                            ...       41.319 sec (  0.1%)
State Vector Update                    ...        0.426 sec (  0.0%)
Sigma-vector construction              ...    29906.204 sec ( 40.3%)
  <0|H|D>                              ...        0.003 sec (  0.0% of sigma)
  <D|H|D>(0-ext)                       ...     3991.888 sec ( 13.3% of sigma)
  <D|H|D>(2-ext Fock)                  ...       15.657 sec (  0.1% of sigma)
  <D|H|D>(2-ext)                       ...      639.832 sec (  2.1% of sigma)
  <D|H|D>(4-ext)                       ...      138.135 sec (  0.5% of sigma)
  <D|H|D>(4-ext-corr)                  ...      557.776 sec (  1.9% of sigma)
  CCSD doubles correction              ...      187.017 sec (  0.6% of sigma)
  <S|H|S>                              ...       74.799 sec (  0.3% of sigma)
  <S|H|D>(1-ext)                       ...      150.427 sec (  0.5% of sigma)
  <D|H|S>(1-ext)                       ...        5.513 sec (  0.0% of sigma)
  <S|H|D>(3-ext)                       ...      334.547 sec (  1.1% of sigma)
  CCSD singles correction              ...        0.009 sec (  0.0% of sigma)
  Fock-dressing                        ...    23077.617 sec ( 77.2% of sigma)
  Singles amplitudes                   ...      357.680 sec (  1.2% of sigma)
  (ik|jl)-dressing                     ...      210.481 sec (  0.7% of sigma)
  (ij|ab),(ia|jb)-dressing             ...      141.324 sec (  0.5% of sigma)
  Pair energies                        ...        0.110 sec (  0.0% of sigma)
Total Time for computing (T)           ...    16675.564 sec ( 22.5% of ALL)


-------------------
EXTRAPOLATED ENERGY
-------------------

NOTE: In case the method needs a correlation auxilliary basis set, for the calculation
      with the cc-pVDZ basis set, we will use the corresponding triple zeta auxilliary basis set.

-----------------------------------------------------------------
                      EP1 - MDCI extrapolation:
-----------------------------------------------------------------
NOTE: We use as reference SCF energy, for the extrapolation, the one from the MDCI module and not the one 
from the SCF calculation. In case the first step is a DFT calculation these two might be different.

NOTE: For the SCF part we extrapolate based on the scheme proposed in J. Chem. Phys. 2008, 129, 184116
using the exponents from J. Chem. Theory Comput., 7, 33-43 (2011)

NOTE: For the correlation part we extrapolate based on the scheme proposed in J. Chem. Phys. 1997, 106, 9639
using the exponents from J. Chem. Theory Comput., 7, 33-43 (2011)


Alpha(2/3)     :  4.420 (SCF Extrapolation)
Beta(2/3)      :  2.460 (correlation extrapolation)

SCF energy with basis cc-pVDZ:                        -2616.486116755
SCF energy with basis cc-pVTZ:                        -2617.154859753
Extrapolated CBS SCF energy (2/3) :                   -2617.372345832 (-0.217486079) 

MDCI energy with basis cc-pVDZ:                          -8.838928587
MDCI energy with basis cc-pVTZ:                         -10.742163388
Extrapolated CBS correlation energy (2/3) :             -11.854292607 (-1.112129219)

Estimated CBS total energy (2/3) :                    -2629.226638439



-------------------------   --------------------
FINAL SINGLE POINT ENERGY     -2629.226638438938
-------------------------   --------------------


                            ***************************************
                            *     ORCA property calculations      *
                            ***************************************

                                    ---------------------
                                    Active property flags
                                    ---------------------



Timings for individual modules:

Sum of individual times         ...    77938.072 sec (=1298.968 min)
GTO integral calculation        ...       21.349 sec (=   0.356 min)   0.0 %
SCF iterations                  ...     1532.154 sec (=  25.536 min)   2.0 %
MDCI module                     ...    76384.569 sec (=1273.076 min)  98.0 %
                             ****ORCA TERMINATED NORMALLY****
TOTAL RUN TIME: 0 days 21 hours 39 minutes 0 seconds 534 msec
