nohup: ignoring input

                                 *****************
                                 * O   R   C   A *
                                 *****************

                                            #,                                       
                                            ###                                      
                                            ####                                     
                                            #####                                    
                                            ######                                   
                                           ########,                                 
                                     ,,################,,,,,                         
                               ,,#################################,,                 
                          ,,##########################################,,             
                       ,#########################################, ''#####,          
                    ,#############################################,,   '####,        
                  ,##################################################,,,,####,       
                ,###########''''           ''''###############################       
              ,#####''   ,,,,##########,,,,          '''####'''          '####       
            ,##' ,,,,###########################,,,                        '##       
           ' ,,###''''                  '''############,,,                           
         ,,##''                                '''############,,,,        ,,,,,,###''
      ,#''                                            '''#######################'''  
     '                                                          ''''####''''         
             ,#######,   #######,   ,#######,      ##                                
            ,#'     '#,  ##    ##  ,#'     '#,    #''#        ######   ,####,        
            ##       ##  ##   ,#'  ##            #'  '#       #        #'  '#        
            ##       ##  #######   ##           ,######,      #####,   #    #        
            '#,     ,#'  ##    ##  '#,     ,#' ,#      #,         ##   #,  ,#        
             '#######'   ##     ##  '#######'  #'      '#     #####' # '####'        



                  #######################################################
                  #                        -***-                        #
                  #          Department of theory and spectroscopy      #
                  #    Directorship and core code : Frank Neese         #
                  #        Max Planck Institute fuer Kohlenforschung    #
                  #                Kaiser Wilhelm Platz 1               #
                  #                 D-45470 Muelheim/Ruhr               #
                  #                      Germany                        #
                  #                                                     #
                  #                  All rights reserved                #
                  #                        -***-                        #
                  #######################################################


                         Program Version 5.0.2 -  RELEASE  -


 With contributions from (in alphabetic order):
   Daniel Aravena         : Magnetic Suceptibility
   Michael Atanasov       : Ab Initio Ligand Field Theory (pilot matlab implementation)
   Alexander A. Auer      : GIAO ZORA, VPT2 properties, NMR spectrum
   Ute Becker             : Parallelization
   Giovanni Bistoni       : ED, misc. LED, open-shell LED, HFLD
   Martin Brehm           : Molecular dynamics
   Dmytro Bykov           : SCF Hessian
   Vijay G. Chilkuri      : MRCI spin determinant printing, contributions to CSF-ICE
   Dipayan Datta          : RHF DLPNO-CCSD density
   Achintya Kumar Dutta   : EOM-CC, STEOM-CC
   Dmitry Ganyushin       : Spin-Orbit,Spin-Spin,Magnetic field MRCI
   Miquel Garcia          : C-PCM and meta-GGA Hessian, CC/C-PCM, Gaussian charge scheme
   Yang Guo               : DLPNO-NEVPT2, F12-NEVPT2, CIM, IAO-localization
   Andreas Hansen         : Spin unrestricted coupled pair/coupled cluster methods
   Benjamin Helmich-Paris : MC-RPA, TRAH-SCF, COSX integrals
   Lee Huntington         : MR-EOM, pCC
   Robert Izsak           : Overlap fitted RIJCOSX, COSX-SCS-MP3, EOM
   Marcus Kettner         : VPT2
   Christian Kollmar      : KDIIS, OOCD, Brueckner-CCSD(T), CCSD density, CASPT2, CASPT2-K
   Simone Kossmann        : Meta GGA functionals, TD-DFT gradient, OOMP2, MP2 Hessian
   Martin Krupicka        : Initial AUTO-CI
   Lucas Lang             : DCDCAS
   Marvin Lechner         : AUTO-CI (C++ implementation), FIC-MRCC
   Dagmar Lenk            : GEPOL surface, SMD
   Dimitrios Liakos       : Extrapolation schemes; Compound Job, initial MDCI parallelization
   Dimitrios Manganas     : Further ROCIS development; embedding schemes
   Dimitrios Pantazis     : SARC Basis sets
   Anastasios Papadopoulos: AUTO-CI, single reference methods and gradients
   Taras Petrenko         : DFT Hessian,TD-DFT gradient, ASA, ECA, R-Raman, ABS, FL, XAS/XES, NRVS
   Peter Pinski           : DLPNO-MP2, DLPNO-MP2 Gradient
   Christoph Reimann      : Effective Core Potentials
   Marius Retegan         : Local ZFS, SOC
   Christoph Riplinger    : Optimizer, TS searches, QM/MM, DLPNO-CCSD(T), (RO)-DLPNO pert. Triples
   Tobias Risthaus        : Range-separated hybrids, TD-DFT gradient, RPA, STAB
   Michael Roemelt        : Original ROCIS implementation
   Masaaki Saitow         : Open-shell DLPNO-CCSD energy and density
   Barbara Sandhoefer     : DKH picture change effects
   Avijit Sen             : IP-ROCIS
   Kantharuban Sivalingam : CASSCF convergence, NEVPT2, FIC-MRCI
   Bernardo de Souza      : ESD, SOC TD-DFT
   Georgi Stoychev        : AutoAux, RI-MP2 NMR, DLPNO-MP2 response
   Willem Van den Heuvel  : Paramagnetic NMR
   Boris Wezisla          : Elementary symmetry handling
   Frank Wennmohs         : Technical directorship


 We gratefully acknowledge several colleagues who have allowed us to
 interface, adapt or use parts of their codes:
   Stefan Grimme, W. Hujo, H. Kruse, P. Pracht,  : VdW corrections, initial TS optimization,
                  C. Bannwarth, S. Ehlert          DFT functionals, gCP, sTDA/sTD-DF
   Ed Valeev, F. Pavosevic, A. Kumar             : LibInt (2-el integral package), F12 methods
   Garnet Chan, S. Sharma, J. Yang, R. Olivares  : DMRG
   Ulf Ekstrom                                   : XCFun DFT Library
   Mihaly Kallay                                 : mrcc  (arbitrary order and MRCC methods)
   Jiri Pittner, Ondrej Demel                    : Mk-CCSD
   Frank Weinhold                                : gennbo (NPA and NBO analysis)
   Christopher J. Cramer and Donald G. Truhlar   : smd solvation model
   Lars Goerigk                                  : TD-DFT with DH, B97 family of functionals
   V. Asgeirsson, H. Jonsson                     : NEB implementation
   FAccTs GmbH                                   : IRC, NEB, NEB-TS, DLPNO-Multilevel, CI-OPT
                                                   MM, QMMM, 2- and 3-layer-ONIOM, Crystal-QMMM,
                                                   LR-CPCM, SF, NACMEs, symmetry and pop. for TD-DFT,
                                                   nearIR, NL-DFT gradient (VV10), updates on ESD,
                                                   ML-optimized integration grids
   S Lehtola, MJT Oliveira, MAL Marques          : LibXC Library
   Liviu Ungur et al                             : ANISO software


 Your calculation uses the libint2 library for the computation of 2-el integrals
 For citations please refer to: http://libint.valeyev.net

 Your ORCA version has been built with support for libXC version: 5.1.0
 For citations please refer to: https://tddft.org/programs/libxc/

 This ORCA versions uses:
   CBLAS   interface :  Fast vector & matrix operations
   LAPACKE interface :  Fast linear algebra routines
   SCALAPACK package :  Parallel linear algebra routines
   Shared memory     :  Shared parallel matrices
   BLAS/LAPACK       :  OpenBLAS 0.3.15  USE64BITINT DYNAMIC_ARCH NO_AFFINITY SkylakeX SINGLE_THREADED
        Core in use  :  SkylakeX
   Copyright (c) 2011-2014, The OpenBLAS Project


================================================================================

----- Orbital basis set information -----
Your calculation utilizes the basis: def2-TZVPP
   F. Weigend and R. Ahlrichs, Phys. Chem. Chem. Phys. 7, 3297 (2005).

----- AuxC basis set information -----
Your calculation utilizes the auxiliary basis: def2-TZVPP/C
  H-La, Hf-Rn : A. Hellweg, C. Hattig, S. Hofener and W. Klopper, Theor. Chem. Acc. 117, 587 (2007).
        Ce-Lu : J. Chmela and M. E. Harding, Mol. Phys. (2018).

================================================================================
                                        WARNINGS
                       Please study these warnings very carefully!
================================================================================

WARNING: Old DensityContainer found on disk!
         Will remove this file - 
         If you want to keep old densities, please start your calculation with a different basename. 


WARNING: Post HF methods need fully converged wavefunctions
  ===> : Setting SCFConvForced true
         You can overwrite this default with %scf ConvForced false 


WARNING: MDCI localization with Augmented Hessian Foster-Boys
  ===> : Switching off randomization!

INFO   : the flag for use of the SHARK integral package has been found!

================================================================================
                                       INPUT FILE
================================================================================
NAME = P2_crest_conf_1_DLPNO.inp
|  1> # P2_crest_conf_1_DLPNO
|  2> %maxcore 16000
|  3> %pal nprocs 8 end
|  4> ! DLPNO-CCSD(T) def2-tzvpp def2-tzvpp/C
|  5> %scf maxiter 500
|  6> end
|  7> % mdci
|  8> Density None
|  9> end
| 10> % elprop
| 11> Dipole False
| 12> end
| 13> * xyz 0 1
| 14>  C  -0.62164900   0.78070800  -0.71703000
| 15>  C  -0.62165400  -0.78077400  -0.71695700
| 16>  C   0.82596000  -1.13089700  -0.22906200
| 17>  C   0.98032700  -0.66716700   1.20770300
| 18>  C   0.98033100   0.66728900   1.20763300
| 19>  C   0.82596900   1.13086900  -0.22918100
| 20>  C   1.60077500  -0.00005600  -0.95327000
| 21>  C  -1.82142300  -0.77725400   0.26904700
| 22>  C  -1.82140500   0.77728700   0.26899300
| 23>  H  -0.82060500   1.26131300  -1.67539400
| 24>  H  -0.82060000  -1.26146900  -1.67527800
| 25>  H   1.13554000  -2.15445400  -0.43379400
| 26>  H   0.99625300  -1.31713400   2.07174100
| 27>  H   0.99625800   1.31734800   2.07160300
| 28>  H   1.13555700   2.15440200  -0.43401900
| 29>  H   2.66717000  -0.00004900  -0.72610000
| 30>  H   1.45342300  -0.00011400  -2.03626600
| 31>  H  -1.62509500  -1.23724800   1.23782100
| 32>  H  -2.72813300  -1.22108500  -0.14261700
| 33>  H  -2.72811100   1.22111400  -0.14268200
| 34>  H  -1.62504300   1.23734000   1.23773100
| 35> **                         ****END OF INPUT****
================================================================================

                       ****************************
                       * Single Point Calculation *
                       ****************************

---------------------------------
CARTESIAN COORDINATES (ANGSTROEM)
---------------------------------
  C     -0.621649    0.780708   -0.717030
  C     -0.621654   -0.780774   -0.716957
  C      0.825960   -1.130897   -0.229062
  C      0.980327   -0.667167    1.207703
  C      0.980331    0.667289    1.207633
  C      0.825969    1.130869   -0.229181
  C      1.600775   -0.000056   -0.953270
  C     -1.821423   -0.777254    0.269047
  C     -1.821405    0.777287    0.268993
  H     -0.820605    1.261313   -1.675394
  H     -0.820600   -1.261469   -1.675278
  H      1.135540   -2.154454   -0.433794
  H      0.996253   -1.317134    2.071741
  H      0.996258    1.317348    2.071603
  H      1.135557    2.154402   -0.434019
  H      2.667170   -0.000049   -0.726100
  H      1.453423   -0.000114   -2.036266
  H     -1.625095   -1.237248    1.237821
  H     -2.728133   -1.221085   -0.142617
  H     -2.728111    1.221114   -0.142682
  H     -1.625043    1.237340    1.237731

----------------------------
CARTESIAN COORDINATES (A.U.)
----------------------------
  NO LB      ZA    FRAG     MASS         X           Y           Z
   0 C     6.0000    0    12.011   -1.174746    1.475324   -1.354990
   1 C     6.0000    0    12.011   -1.174756   -1.475449   -1.354852
   2 C     6.0000    0    12.011    1.560838   -2.137086   -0.432864
   3 C     6.0000    0    12.011    1.852550   -1.260763    2.282228
   4 C     6.0000    0    12.011    1.852557    1.260993    2.282096
   5 C     6.0000    0    12.011    1.560855    2.137033   -0.433089
   6 C     6.0000    0    12.011    3.025026   -0.000106   -1.801419
   7 C     6.0000    0    12.011   -3.441991   -1.468797    0.508425
   8 C     6.0000    0    12.011   -3.441957    1.468860    0.508323
   9 H     1.0000    0     1.008   -1.550719    2.383536   -3.166036
  10 H     1.0000    0     1.008   -1.550709   -2.383831   -3.165817
  11 H     1.0000    0     1.008    2.145860   -4.071328   -0.819752
  12 H     1.0000    0     1.008    1.882645   -2.489023    3.915023
  13 H     1.0000    0     1.008    1.882655    2.489427    3.914762
  14 H     1.0000    0     1.008    2.145892    4.071230   -0.820177
  15 H     1.0000    0     1.008    5.040221   -0.000093   -1.372130
  16 H     1.0000    0     1.008    2.746571   -0.000215   -3.847985
  17 H     1.0000    0     1.008   -3.070984   -2.338060    2.339143
  18 H     1.0000    0     1.008   -5.155424   -2.307516   -0.269507
  19 H     1.0000    0     1.008   -5.155383    2.307571   -0.269630
  20 H     1.0000    0     1.008   -3.070886    2.338234    2.338973

--------------------------------
INTERNAL COORDINATES (ANGSTROEM)
--------------------------------
 C      0   0   0     0.000000000000     0.00000000     0.00000000
 C      1   0   0     1.561482001714     0.00000000     0.00000000
 C      2   1   0     1.567231297272   102.90962419     0.00000000
 C      3   2   1     1.517619302992   108.68795653    65.89458202
 C      4   3   2     1.334456001842   107.78913570   290.86834304
 C      5   4   3     1.517619357428   107.78912753     0.00000000
 C      3   2   1     1.550360241612    98.81530198   322.45128761
 C      2   1   3     1.552952649561    89.87197287   121.96069987
 C      1   2   3     1.552954448561    89.87194067   238.04013751
 H      1   2   3     1.090424785328   116.15434542   120.35331424
 H      2   1   3     1.090424840593   116.15444165   239.64745845
 H      3   2   1     1.088771739380   114.46386846   197.19235869
 H      4   3   2     1.081328998968   125.05131760   105.91336412
 H      5   4   3     1.081329983728   126.95046201   174.92372300
 H      6   5   4     1.088771389263   115.87184880   199.66613494
 H      7   3   2     1.090323119527   113.04636781   177.25064855
 H      7   3   2     1.092974359847   113.29355034   302.94344387
 H      8   2   1     1.090257871651   115.09355671   242.16171061
 H      8   2   1     1.090218432039   113.69472150   116.45831251
 H      9   1   2     1.090217630563   113.69503234   243.53974316
 H      9   1   2     1.090256901146   115.09317614   117.83624842

---------------------------
INTERNAL COORDINATES (A.U.)
---------------------------
 C      0   0   0     0.000000000000     0.00000000     0.00000000
 C      1   0   0     2.950773346287     0.00000000     0.00000000
 C      2   1   0     2.961637940355   102.90962419     0.00000000
 C      3   2   1     2.867884858207   108.68795653    65.89458202
 C      4   3   2     2.521756381249   107.78913570   290.86834304
 C      5   4   3     2.867884961076   107.78912753     0.00000000
 C      3   2   1     2.929756265566    98.81530198   322.45128761
 C      2   1   3     2.934655206617    89.87197287   121.96069987
 C      1   2   3     2.934658606235    89.87194067   238.04013751
 H      1   2   3     2.060604213909   116.15434542   120.35331424
 H      2   1   3     2.060604318345   116.15444165   239.64745845
 H      3   2   1     2.057480409782   114.46386846   197.19235869
 H      4   3   2     2.043415668717   125.05131760   105.91336412
 H      5   4   3     2.043417529644   126.95046201   174.92372300
 H      6   5   4     2.057479748155   115.87184880   199.66613494
 H      7   3   2     2.060412093388   113.04636781   177.25064855
 H      7   3   2     2.065422211510   113.29355034   302.94344387
 H      8   2   1     2.060288792771   115.09355671   242.16171061
 H      8   2   1     2.060214262706   113.69472150   116.45831251
 H      9   1   2     2.060212748136   113.69503234   243.53974316
 H      9   1   2     2.060286958784   115.09317614   117.83624842

---------------------
BASIS SET INFORMATION
---------------------
There are 2 groups of distinct atoms

 Group   1 Type C   : 11s6p2d1f contracted to 5s3p2d1f pattern {62111/411/11/1}
 Group   2 Type H   : 5s2p1d contracted to 3s2p1d pattern {311/11/1}

Atom   0C    basis set group =>   1
Atom   1C    basis set group =>   1
Atom   2C    basis set group =>   1
Atom   3C    basis set group =>   1
Atom   4C    basis set group =>   1
Atom   5C    basis set group =>   1
Atom   6C    basis set group =>   1
Atom   7C    basis set group =>   1
Atom   8C    basis set group =>   1
Atom   9H    basis set group =>   2
Atom  10H    basis set group =>   2
Atom  11H    basis set group =>   2
Atom  12H    basis set group =>   2
Atom  13H    basis set group =>   2
Atom  14H    basis set group =>   2
Atom  15H    basis set group =>   2
Atom  16H    basis set group =>   2
Atom  17H    basis set group =>   2
Atom  18H    basis set group =>   2
Atom  19H    basis set group =>   2
Atom  20H    basis set group =>   2
---------------------------------
AUXILIARY/C BASIS SET INFORMATION
---------------------------------
There are 2 groups of distinct atoms

 Group   1 Type C   : 8s6p5d3f1g contracted to 8s6p4d3f1g pattern {11111111/111111/2111/111/1}
 Group   2 Type H   : 4s3p2d1f contracted to 4s3p2d1f pattern {1111/111/11/1}

Atom   0C    basis set group =>   1
Atom   1C    basis set group =>   1
Atom   2C    basis set group =>   1
Atom   3C    basis set group =>   1
Atom   4C    basis set group =>   1
Atom   5C    basis set group =>   1
Atom   6C    basis set group =>   1
Atom   7C    basis set group =>   1
Atom   8C    basis set group =>   1
Atom   9H    basis set group =>   2
Atom  10H    basis set group =>   2
Atom  11H    basis set group =>   2
Atom  12H    basis set group =>   2
Atom  13H    basis set group =>   2
Atom  14H    basis set group =>   2
Atom  15H    basis set group =>   2
Atom  16H    basis set group =>   2
Atom  17H    basis set group =>   2
Atom  18H    basis set group =>   2
Atom  19H    basis set group =>   2
Atom  20H    basis set group =>   2

Checking for AutoStart:
The File: P2_crest_conf_1_DLPNO.gbw exists
Trying to determine its content:
     ... Fine, the file contains calculation information
     ... Fine, the calculation information was read
     ... Fine, the file contains a basis set
     ... Fine, the basis set was read
     ... Fine, the file contains a geometry
     ... Fine, the geometry was read
     ... Fine, the file contains a set of orbitals
     ... Fine, the orbitals can be read
     => possible old guess file was deleted
     => GBW file was renamed to GES file
     => GES file is set as startup file
     => Guess is set to MORead
     ... now leaving AutoStart



           ************************************************************
           *        Program running with 8 parallel MPI-processes     *
           *              working on a common directory               *
           ************************************************************
------------------------------------------------------------------------------
                           ORCA GTO INTEGRAL CALCULATION
------------------------------------------------------------------------------
------------------------------------------------------------------------------
                   ___                                                        
                  /   \      - P O W E R E D   B Y -                         
                 /     \                                                     
                 |  |  |   _    _      __       _____    __    __             
                 |  |  |  | |  | |    /  \     |  _  \  |  |  /  |          
                  \  \/   | |  | |   /    \    | | | |  |  | /  /          
                 / \  \   | |__| |  /  /\  \   | |_| |  |  |/  /          
                |  |  |   |  __  | /  /__\  \  |    /   |      \           
                |  |  |   | |  | | |   __   |  |    \   |  |\   \          
                \     /   | |  | | |  |  |  |  | |\  \  |  | \   \       
                 \___/    |_|  |_| |__|  |__|  |_| \__\ |__|  \__/        
                                                                              
                      - O R C A' S   B I G   F R I E N D -                    
                                      &                                       
                       - I N T E G R A L  F E E D E R -                       
                                                                              
 v1 FN, 2020, v2 2021                                                         
------------------------------------------------------------------------------


Reading SHARK input file P2_crest_conf_1_DLPNO.SHARKINP.tmp ... ok
----------------------
SHARK INTEGRAL PACKAGE
----------------------

Number of atoms                             ...     21
Number of basis functions                   ...    447
Number of shells                            ...    171
Maximum angular momentum                    ...      3
Integral batch strategy                     ... SHARK/LIBINT Hybrid
RI-J (if used) integral strategy            ... SPLIT-RIJ (Revised 2003 algorithm where possible)
Printlevel                                  ...      1
Contraction scheme used                     ... SEGMENTED contraction
Coulomb Range Separation                    ... NOT USED
Exchange Range Separation                   ... NOT USED
Finite Nucleus Model                        ... NOT USED
Auxiliary Coulomb fitting basis             ... NOT available
Auxiliary J/K fitting basis                 ... NOT available
Auxiliary Correlation fitting basis         ... AVAILABLE
   # of basis functions in Aux-C            ...   1044
   # of shells in Aux-C                     ...    318
   Maximum angular momentum in Aux-C        ...      4
Auxiliary 'external' fitting basis          ... NOT available
Integral threshold                          ...     1.000000e-10
Primitive cut-off                           ...     1.000000e-11
Primitive pair pre-selection threshold      ...     1.000000e-11

Calculating pre-screening integrals         ... done (  0.0 sec) Dimension = 171
Organizing shell pair data                  ... done (  0.1 sec)
Shell pair information
Total number of shell pairs                 ...     14706
Shell pairs after pre-screening             ...     13695
Total number of primitive shell pairs       ...     38460
Primitive shell pairs kept                  ...     28067
          la=0 lb=0:   3030 shell pairs
          la=1 lb=0:   3869 shell pairs
          la=1 lb=1:   1261 shell pairs
          la=2 lb=0:   2194 shell pairs
          la=2 lb=1:   1432 shell pairs
          la=2 lb=2:    426 shell pairs
          la=3 lb=0:    719 shell pairs
          la=3 lb=1:    451 shell pairs
          la=3 lb=2:    268 shell pairs
          la=3 lb=3:     45 shell pairs

Calculating one electron integrals          ... done (  0.0 sec)
Calculating RI/C V-Matrix + Cholesky decomp.... done (  0.0 sec)
Calculating Nuclear repulsion               ... done (  0.0 sec) ENN=    464.364745718363 Eh

SHARK setup successfully completed in   0.4 seconds

Maximum memory used throughout the entire GTOINT-calculation: 26.1 MB


           ************************************************************
           *        Program running with 8 parallel MPI-processes     *
           *              working on a common directory               *
           ************************************************************
-------------------------------------------------------------------------------
                                 ORCA SCF
-------------------------------------------------------------------------------

------------
SCF SETTINGS
------------
Hamiltonian:
 Ab initio Hamiltonian  Method          .... Hartree-Fock(GTOs)


General Settings:
 Integral files         IntName         .... P2_crest_conf_1_DLPNO
 Hartree-Fock type      HFTyp           .... RHF
 Total Charge           Charge          ....    0
 Multiplicity           Mult            ....    1
 Number of Electrons    NEL             ....   66
 Basis Dimension        Dim             ....  447
 Nuclear Repulsion      ENuc            ....    464.3647457184 Eh

Convergence Acceleration:
 DIIS                   CNVDIIS         .... on
   Start iteration      DIISMaxIt       ....    12
   Startup error        DIISStart       ....  0.200000
   # of expansion vecs  DIISMaxEq       ....     5
   Bias factor          DIISBfac        ....   1.050
   Max. coefficient     DIISMaxC        ....  10.000
 Trust-Rad. Augm. Hess. CNVTRAH         .... auto
   Auto Start mean grad. ratio tolernc. ....  1.125000
   Auto Start start iteration           ....     1
   Auto Start num. interpolation iter.  ....    10
   Max. Number of Micro iterations      ....    16
   Max. Number of Macro iterations      .... Maxiter - #DIIS iter
   Number of Davidson start vectors     ....     2
   Converg. threshold I  (grad. norm)   ....   5.000e-05
   Converg. threshold II (energy diff.) ....   1.000e-06
   Grad. Scal. Fac. for Micro threshold ....   0.100
   Minimum threshold for Micro iter.    ....   0.010
   NR start threshold (gradient norm)   ....   0.001
   Initial trust radius                 ....   0.400
   Minimum AH scaling param. (alpha)    ....   1.000
   Maximum AH scaling param. (alpha)    .... 1000.000
   Orbital update algorithm             .... Taylor
   White noise on init. David. guess    .... on
   Maximum white noise                  ....   0.010
   Quad. conv. algorithm                .... NR
 SOSCF                  CNVSOSCF        .... on
   Start iteration      SOSCFMaxIt      ....   150
   Startup grad/error   SOSCFStart      ....  0.003300
 Level Shifting         CNVShift        .... on
   Level shift para.    LevelShift      ....    0.2500
   Turn off err/grad.   ShiftErr        ....    0.0010
 Zerner damping         CNVZerner       .... off
 Static damping         CNVDamp         .... on
   Fraction old density DampFac         ....    0.7000
   Max. Damping (<1)    DampMax         ....    0.9800
   Min. Damping (>=0)   DampMin         ....    0.0000
   Turn off err/grad.   DampErr         ....    0.1000
 Fernandez-Rico         CNVRico         .... off

SCF Procedure:
 Maximum # iterations   MaxIter         ....   500
 SCF integral mode      SCFMode         .... Direct
   Integral package                     .... SHARK and LIBINT hybrid scheme
 Reset frequency        DirectResetFreq ....    20
 Integral Threshold     Thresh          ....  1.000e-10 Eh
 Primitive CutOff       TCut            ....  1.000e-11 Eh

Convergence Tolerance:
 Convergence Check Mode ConvCheckMode   .... Total+1el-Energy
 Convergence forced     ConvForced      .... 1
 Energy Change          TolE            ....  1.000e-06 Eh
 1-El. energy change                    ....  1.000e-03 Eh
 Orbital Gradient       TolG            ....  5.000e-05
 Orbital Rotation angle TolX            ....  5.000e-05
 DIIS Error             TolErr          ....  1.000e-06


Diagonalization of the overlap matrix:
Smallest eigenvalue                        ... 1.136e-05
Time for diagonalization                   ...    0.025 sec
Threshold for overlap eigenvalues          ... 1.000e-08
Number of eigenvalues below threshold      ... 0
Time for construction of square roots      ...    0.013 sec
Total time needed                          ...    0.040 sec

---------------------
INITIAL GUESS: MOREAD
---------------------
Guess MOs are being read from file: P2_crest_conf_1_DLPNO.ges
Input Geometry matches current geometry (good)
Input basis set matches current basis set (good)
MOs were renormalized
MOs were reorthogonalized (Cholesky)
                      ------------------
                      INITIAL GUESS DONE (   0.1 sec)
                      ------------------
--------------
SCF ITERATIONS
--------------
ITER       Energy         Delta-E        Max-DP      RMS-DP      [F,P]     Damp
               ***  Starting incremental Fock matrix formation  ***
                      *** Initiating the SOSCF procedure ***
                      *** Re-Reading the Fockian *** 
                      *** Removing any level shift *** 
ITER      Energy       Delta-E        Grad      Rot      Max-DP    RMS-DP
  0   -347.84673663 -347.8467366303  0.000002  0.000002  0.000005  0.000000
               *** Restarting incremental Fock matrix formation ***
                 **** Energy Check signals convergence ****
              ***Rediagonalizing the Fockian in SOSCF/NRSCF***

               *****************************************************
               *                     SUCCESS                       *
               *           SCF CONVERGED AFTER   1 CYCLES          *
               *****************************************************


----------------
TOTAL SCF ENERGY
----------------

Total Energy       :         -347.84673663 Eh           -9465.39091 eV

Components:
Nuclear Repulsion  :          464.36474572 Eh           12636.00713 eV
Electronic Energy  :         -812.21148235 Eh          -22101.39805 eV
One Electron Energy:        -1391.02807427 Eh          -37851.79825 eV
Two Electron Energy:          578.81659192 Eh           15750.40020 eV

Virial components:
Potential Energy   :         -695.33308375 Eh          -18920.97513 eV
Kinetic Energy     :          347.48634712 Eh            9455.58422 eV
Virial Ratio       :            2.00103713


---------------
SCF CONVERGENCE
---------------

  Last Energy change         ...   -2.4500e-10  Tolerance :   1.0000e-06
  Last MAX-Density change    ...    2.6332e-06  Tolerance :   1.0000e-05
  Last RMS-Density change    ...    4.4265e-08  Tolerance :   1.0000e-06
  Last Orbital Gradient      ...    1.5150e-06  Tolerance :   5.0000e-05
  Last Orbital Rotation      ...    2.6444e-06  Tolerance :   5.0000e-05

             **** THE GBW FILE WAS UPDATED (P2_crest_conf_1_DLPNO.gbw) ****
             **** DENSITY P2_crest_conf_1_DLPNO.scfp WAS UPDATED ****
             **** ENERGY FILE WAS UPDATED (P2_crest_conf_1_DLPNO.en.tmp) ****
             **** THE GBW FILE WAS UPDATED (P2_crest_conf_1_DLPNO.gbw) ****
             **** DENSITY P2_crest_conf_1_DLPNO.scfp WAS UPDATED ****
----------------
ORBITAL ENERGIES
----------------

  NO   OCC          E(Eh)            E(eV) 
   0   2.0000     -11.225381      -305.4581 
   1   2.0000     -11.225378      -305.4581 
   2   2.0000     -11.216883      -305.2269 
   3   2.0000     -11.216783      -305.2242 
   4   2.0000     -11.216235      -305.2093 
   5   2.0000     -11.215878      -305.1996 
   6   2.0000     -11.215159      -305.1800 
   7   2.0000     -11.209590      -305.0285 
   8   2.0000     -11.209048      -305.0137 
   9   2.0000      -1.183601       -32.2074 
  10   2.0000      -1.079418       -29.3725 
  11   2.0000      -0.974562       -26.5192 
  12   2.0000      -0.970798       -26.4168 
  13   2.0000      -0.877189       -23.8695 
  14   2.0000      -0.854116       -23.2417 
  15   2.0000      -0.764188       -20.7946 
  16   2.0000      -0.749659       -20.3993 
  17   2.0000      -0.696623       -18.9561 
  18   2.0000      -0.669762       -18.2251 
  19   2.0000      -0.644436       -17.5360 
  20   2.0000      -0.635306       -17.2876 
  21   2.0000      -0.574193       -15.6246 
  22   2.0000      -0.540182       -14.6991 
  23   2.0000      -0.539478       -14.6799 
  24   2.0000      -0.514182       -13.9916 
  25   2.0000      -0.493093       -13.4177 
  26   2.0000      -0.481059       -13.0903 
  27   2.0000      -0.469855       -12.7854 
  28   2.0000      -0.452668       -12.3177 
  29   2.0000      -0.426833       -11.6147 
  30   2.0000      -0.411459       -11.1964 
  31   2.0000      -0.407987       -11.1019 
  32   2.0000      -0.336467        -9.1557 
  33   0.0000       0.141297         3.8449 
  34   0.0000       0.146078         3.9750 
  35   0.0000       0.160038         4.3548 
  36   0.0000       0.171171         4.6578 
  37   0.0000       0.171550         4.6681 
  38   0.0000       0.190496         5.1837 
  39   0.0000       0.200179         5.4471 
  40   0.0000       0.201190         5.4746 
  41   0.0000       0.204124         5.5545 
  42   0.0000       0.223930         6.0935 
  43   0.0000       0.232130         6.3166 
  44   0.0000       0.237792         6.4707 
  45   0.0000       0.256140         6.9699 
  46   0.0000       0.270387         7.3576 
  47   0.0000       0.271280         7.3819 
  48   0.0000       0.276462         7.5229 
  49   0.0000       0.290175         7.8961 
  50   0.0000       0.303263         8.2522 
  51   0.0000       0.303653         8.2628 
  52   0.0000       0.330111         8.9828 
  53   0.0000       0.335631         9.1330 
  54   0.0000       0.358526         9.7560 
  55   0.0000       0.364339         9.9142 
  56   0.0000       0.366451         9.9716 
  57   0.0000       0.381681        10.3861 
  58   0.0000       0.384057        10.4507 
  59   0.0000       0.385962        10.5026 
  60   0.0000       0.432133        11.7589 
  61   0.0000       0.435061        11.8386 
  62   0.0000       0.465135        12.6570 
  63   0.0000       0.469574        12.7778 
  64   0.0000       0.479903        13.0588 
  65   0.0000       0.484399        13.1812 
  66   0.0000       0.485069        13.1994 
  67   0.0000       0.516002        14.0411 
  68   0.0000       0.517237        14.0747 
  69   0.0000       0.527289        14.3483 
  70   0.0000       0.550173        14.9710 
  71   0.0000       0.558571        15.1995 
  72   0.0000       0.559572        15.2267 
  73   0.0000       0.569551        15.4983 
  74   0.0000       0.569903        15.5078 
  75   0.0000       0.579883        15.7794 
  76   0.0000       0.586595        15.9621 
  77   0.0000       0.604457        16.4481 
  78   0.0000       0.609024        16.5724 
  79   0.0000       0.612995        16.6804 
  80   0.0000       0.619502        16.8575 
  81   0.0000       0.620197        16.8764 
  82   0.0000       0.623807        16.9747 
  83   0.0000       0.628832        17.1114 
  84   0.0000       0.633978        17.2514 
  85   0.0000       0.637937        17.3591 
  86   0.0000       0.648887        17.6571 
  87   0.0000       0.650800        17.7092 
  88   0.0000       0.669832        18.2271 
  89   0.0000       0.672560        18.3013 
  90   0.0000       0.680461        18.5163 
  91   0.0000       0.680921        18.5288 
  92   0.0000       0.705585        19.1999 
  93   0.0000       0.741069        20.1655 
  94   0.0000       0.762811        20.7571 
  95   0.0000       0.779671        21.2159 
  96   0.0000       0.785086        21.3633 
  97   0.0000       0.811659        22.0864 
  98   0.0000       0.812066        22.0974 
  99   0.0000       0.841005        22.8849 
 100   0.0000       0.869047        23.6480 
 101   0.0000       0.894322        24.3357 
 102   0.0000       0.916052        24.9270 
 103   0.0000       0.940911        25.6035 
 104   0.0000       0.955996        26.0140 
 105   0.0000       0.993399        27.0318 
 106   0.0000       0.995055        27.0768 
 107   0.0000       0.997089        27.1322 
 108   0.0000       1.020596        27.7718 
 109   0.0000       1.034143        28.1405 
 110   0.0000       1.048848        28.5406 
 111   0.0000       1.063791        28.9472 
 112   0.0000       1.070745        29.1365 
 113   0.0000       1.090840        29.6833 
 114   0.0000       1.104436        30.0532 
 115   0.0000       1.118962        30.4485 
 116   0.0000       1.128480        30.7075 
 117   0.0000       1.134125        30.8611 
 118   0.0000       1.140144        31.0249 
 119   0.0000       1.170603        31.8537 
 120   0.0000       1.170764        31.8581 
 121   0.0000       1.183111        32.1941 
 122   0.0000       1.195883        32.5416 
 123   0.0000       1.210557        32.9409 
 124   0.0000       1.222058        33.2539 
 125   0.0000       1.237296        33.6685 
 126   0.0000       1.241031        33.7702 
 127   0.0000       1.244644        33.8685 
 128   0.0000       1.262281        34.3484 
 129   0.0000       1.267309        34.4852 
 130   0.0000       1.278851        34.7993 
 131   0.0000       1.298506        35.3341 
 132   0.0000       1.301886        35.4261 
 133   0.0000       1.314639        35.7731 
 134   0.0000       1.315767        35.8038 
 135   0.0000       1.327088        36.1119 
 136   0.0000       1.346133        36.6301 
 137   0.0000       1.374103        37.3913 
 138   0.0000       1.378357        37.5070 
 139   0.0000       1.385550        37.7027 
 140   0.0000       1.389928        37.8219 
 141   0.0000       1.400364        38.1058 
 142   0.0000       1.408801        38.3354 
 143   0.0000       1.433246        39.0006 
 144   0.0000       1.441685        39.2303 
 145   0.0000       1.462012        39.7834 
 146   0.0000       1.485083        40.4112 
 147   0.0000       1.490488        40.5582 
 148   0.0000       1.492373        40.6095 
 149   0.0000       1.495145        40.6850 
 150   0.0000       1.515349        41.2347 
 151   0.0000       1.546189        42.0739 
 152   0.0000       1.548587        42.1392 
 153   0.0000       1.555485        42.3269 
 154   0.0000       1.590622        43.2830 
 155   0.0000       1.592648        43.3381 
 156   0.0000       1.622561        44.1521 
 157   0.0000       1.623937        44.1896 
 158   0.0000       1.628820        44.3224 
 159   0.0000       1.633240        44.4427 
 160   0.0000       1.646951        44.8158 
 161   0.0000       1.660384        45.1813 
 162   0.0000       1.662887        45.2494 
 163   0.0000       1.679480        45.7010 
 164   0.0000       1.690772        46.0083 
 165   0.0000       1.702671        46.3320 
 166   0.0000       1.717521        46.7361 
 167   0.0000       1.734803        47.2064 
 168   0.0000       1.752040        47.6754 
 169   0.0000       1.763666        47.9918 
 170   0.0000       1.773742        48.2660 
 171   0.0000       1.777421        48.3661 
 172   0.0000       1.788694        48.6728 
 173   0.0000       1.798166        48.9306 
 174   0.0000       1.799144        48.9572 
 175   0.0000       1.811379        49.2901 
 176   0.0000       1.853181        50.4276 
 177   0.0000       1.860767        50.6340 
 178   0.0000       1.875570        51.0368 
 179   0.0000       1.892669        51.5021 
 180   0.0000       1.936817        52.7035 
 181   0.0000       1.949502        53.0487 
 182   0.0000       1.962620        53.4056 
 183   0.0000       1.973612        53.7047 
 184   0.0000       2.005781        54.5801 
 185   0.0000       2.029870        55.2356 
 186   0.0000       2.068343        56.2825 
 187   0.0000       2.077812        56.5402 
 188   0.0000       2.090535        56.8863 
 189   0.0000       2.093787        56.9749 
 190   0.0000       2.123321        57.7785 
 191   0.0000       2.163243        58.8648 
 192   0.0000       2.165215        58.9185 
 193   0.0000       2.226844        60.5955 
 194   0.0000       2.245898        61.1140 
 195   0.0000       2.285121        62.1813 
 196   0.0000       2.299901        62.5835 
 197   0.0000       2.361257        64.2531 
 198   0.0000       2.398959        65.2790 
 199   0.0000       2.402568        65.3772 
 200   0.0000       2.411515        65.6206 
 201   0.0000       2.473035        67.2947 
 202   0.0000       2.489164        67.7336 
 203   0.0000       2.503593        68.1262 
 204   0.0000       2.512460        68.3675 
 205   0.0000       2.586886        70.3928 
 206   0.0000       2.594541        70.6010 
 207   0.0000       2.648762        72.0765 
 208   0.0000       2.671797        72.7033 
 209   0.0000       2.673457        72.7485 
 210   0.0000       2.713878        73.8484 
 211   0.0000       2.738818        74.5270 
 212   0.0000       2.756976        75.0211 
 213   0.0000       2.784596        75.7727 
 214   0.0000       2.786780        75.8321 
 215   0.0000       2.794816        76.0508 
 216   0.0000       2.841694        77.3264 
 217   0.0000       2.851235        77.5860 
 218   0.0000       2.854352        77.6709 
 219   0.0000       2.874391        78.2162 
 220   0.0000       2.892919        78.7203 
 221   0.0000       2.910551        79.2001 
 222   0.0000       2.926065        79.6223 
 223   0.0000       2.941325        80.0375 
 224   0.0000       2.944971        80.1367 
 225   0.0000       2.963341        80.6366 
 226   0.0000       2.991942        81.4149 
 227   0.0000       2.995176        81.5029 
 228   0.0000       3.024436        82.2991 
 229   0.0000       3.025539        82.3291 
 230   0.0000       3.034232        82.5657 
 231   0.0000       3.036751        82.6342 
 232   0.0000       3.051524        83.0362 
 233   0.0000       3.088883        84.0528 
 234   0.0000       3.089829        84.0785 
 235   0.0000       3.112798        84.7035 
 236   0.0000       3.115783        84.7848 
 237   0.0000       3.138563        85.4046 
 238   0.0000       3.157822        85.9287 
 239   0.0000       3.158172        85.9382 
 240   0.0000       3.179221        86.5110 
 241   0.0000       3.184626        86.6581 
 242   0.0000       3.239991        88.1646 
 243   0.0000       3.241704        88.2113 
 244   0.0000       3.255500        88.5867 
 245   0.0000       3.264667        88.8361 
 246   0.0000       3.269869        88.9777 
 247   0.0000       3.285884        89.4134 
 248   0.0000       3.288102        89.4738 
 249   0.0000       3.325815        90.5000 
 250   0.0000       3.327932        90.5576 
 251   0.0000       3.347785        91.0979 
 252   0.0000       3.385316        92.1191 
 253   0.0000       3.399392        92.5022 
 254   0.0000       3.418982        93.0352 
 255   0.0000       3.425861        93.2224 
 256   0.0000       3.462399        94.2167 
 257   0.0000       3.478638        94.6586 
 258   0.0000       3.480426        94.7072 
 259   0.0000       3.495179        95.1087 
 260   0.0000       3.504519        95.3628 
 261   0.0000       3.512736        95.5864 
 262   0.0000       3.519844        95.7798 
 263   0.0000       3.530867        96.0798 
 264   0.0000       3.534911        96.1898 
 265   0.0000       3.543682        96.4285 
 266   0.0000       3.550290        96.6083 
 267   0.0000       3.564193        96.9866 
 268   0.0000       3.568961        97.1164 
 269   0.0000       3.595442        97.8370 
 270   0.0000       3.600540        97.9757 
 271   0.0000       3.613462        98.3273 
 272   0.0000       3.619371        98.4881 
 273   0.0000       3.622169        98.5642 
 274   0.0000       3.640779        99.0706 
 275   0.0000       3.646389        99.2233 
 276   0.0000       3.671670        99.9112 
 277   0.0000       3.678501       100.0971 
 278   0.0000       3.680740       100.1580 
 279   0.0000       3.685691       100.2928 
 280   0.0000       3.720883       101.2504 
 281   0.0000       3.720963       101.2525 
 282   0.0000       3.729107       101.4742 
 283   0.0000       3.743411       101.8634 
 284   0.0000       3.758902       102.2849 
 285   0.0000       3.764504       102.4374 
 286   0.0000       3.801511       103.4444 
 287   0.0000       3.804390       103.5227 
 288   0.0000       3.811990       103.7295 
 289   0.0000       3.839473       104.4774 
 290   0.0000       3.856388       104.9376 
 291   0.0000       3.861849       105.0863 
 292   0.0000       3.865019       105.1725 
 293   0.0000       3.875617       105.4609 
 294   0.0000       3.889071       105.8270 
 295   0.0000       3.904925       106.2584 
 296   0.0000       3.914999       106.5325 
 297   0.0000       3.923458       106.7627 
 298   0.0000       3.934277       107.0571 
 299   0.0000       3.962280       107.8191 
 300   0.0000       3.968329       107.9837 
 301   0.0000       3.976825       108.2149 
 302   0.0000       3.997047       108.7652 
 303   0.0000       4.007625       109.0530 
 304   0.0000       4.041762       109.9819 
 305   0.0000       4.049556       110.1940 
 306   0.0000       4.058004       110.4239 
 307   0.0000       4.066171       110.6461 
 308   0.0000       4.066924       110.6666 
 309   0.0000       4.096665       111.4759 
 310   0.0000       4.107120       111.7604 
 311   0.0000       4.115442       111.9869 
 312   0.0000       4.121265       112.1453 
 313   0.0000       4.139732       112.6478 
 314   0.0000       4.150857       112.9506 
 315   0.0000       4.158171       113.1496 
 316   0.0000       4.185336       113.8888 
 317   0.0000       4.201377       114.3253 
 318   0.0000       4.207870       114.5020 
 319   0.0000       4.216433       114.7350 
 320   0.0000       4.218311       114.7861 
 321   0.0000       4.235046       115.2415 
 322   0.0000       4.242938       115.4562 
 323   0.0000       4.265054       116.0580 
 324   0.0000       4.266347       116.0932 
 325   0.0000       4.288638       116.6998 
 326   0.0000       4.301671       117.0544 
 327   0.0000       4.306256       117.1792 
 328   0.0000       4.329488       117.8114 
 329   0.0000       4.332264       117.8869 
 330   0.0000       4.337238       118.0222 
 331   0.0000       4.344516       118.2203 
 332   0.0000       4.371243       118.9476 
 333   0.0000       4.392489       119.5257 
 334   0.0000       4.406872       119.9171 
 335   0.0000       4.419733       120.2670 
 336   0.0000       4.425216       120.4162 
 337   0.0000       4.433262       120.6352 
 338   0.0000       4.450349       121.1002 
 339   0.0000       4.454894       121.2238 
 340   0.0000       4.458242       121.3149 
 341   0.0000       4.488475       122.1376 
 342   0.0000       4.505859       122.6107 
 343   0.0000       4.524033       123.1052 
 344   0.0000       4.524481       123.1174 
 345   0.0000       4.534198       123.3818 
 346   0.0000       4.561073       124.1131 
 347   0.0000       4.563123       124.1689 
 348   0.0000       4.582084       124.6848 
 349   0.0000       4.595987       125.0632 
 350   0.0000       4.607549       125.3778 
 351   0.0000       4.639024       126.2343 
 352   0.0000       4.640371       126.2709 
 353   0.0000       4.648818       126.5008 
 354   0.0000       4.657771       126.7444 
 355   0.0000       4.678874       127.3186 
 356   0.0000       4.689520       127.6083 
 357   0.0000       4.695778       127.7786 
 358   0.0000       4.707396       128.0948 
 359   0.0000       4.729032       128.6835 
 360   0.0000       4.733298       128.7996 
 361   0.0000       4.769938       129.7966 
 362   0.0000       4.772178       129.8576 
 363   0.0000       4.779213       130.0490 
 364   0.0000       4.782197       130.1302 
 365   0.0000       4.803869       130.7199 
 366   0.0000       4.834077       131.5419 
 367   0.0000       4.848076       131.9228 
 368   0.0000       4.865520       132.3975 
 369   0.0000       4.884822       132.9228 
 370   0.0000       4.901443       133.3750 
 371   0.0000       4.921515       133.9212 
 372   0.0000       4.933148       134.2378 
 373   0.0000       4.965859       135.1279 
 374   0.0000       4.977225       135.4372 
 375   0.0000       5.012470       136.3962 
 376   0.0000       5.046102       137.3114 
 377   0.0000       5.063755       137.7918 
 378   0.0000       5.069831       137.9571 
 379   0.0000       5.089420       138.4902 
 380   0.0000       5.115421       139.1977 
 381   0.0000       5.115646       139.2038 
 382   0.0000       5.119232       139.3014 
 383   0.0000       5.139525       139.8536 
 384   0.0000       5.169918       140.6806 
 385   0.0000       5.178597       140.9168 
 386   0.0000       5.200694       141.5181 
 387   0.0000       5.202842       141.5765 
 388   0.0000       5.217915       141.9867 
 389   0.0000       5.237767       142.5269 
 390   0.0000       5.242886       142.6662 
 391   0.0000       5.248852       142.8285 
 392   0.0000       5.271753       143.4517 
 393   0.0000       5.306340       144.3929 
 394   0.0000       5.326538       144.9425 
 395   0.0000       5.339032       145.2824 
 396   0.0000       5.346790       145.4936 
 397   0.0000       5.393400       146.7619 
 398   0.0000       5.403085       147.0254 
 399   0.0000       5.428456       147.7158 
 400   0.0000       5.440893       148.0542 
 401   0.0000       5.469893       148.8434 
 402   0.0000       5.482363       149.1827 
 403   0.0000       5.494092       149.5018 
 404   0.0000       5.510805       149.9566 
 405   0.0000       5.515080       150.0730 
 406   0.0000       5.520768       150.2277 
 407   0.0000       5.561143       151.3264 
 408   0.0000       5.565702       151.4505 
 409   0.0000       5.583288       151.9290 
 410   0.0000       5.623104       153.0125 
 411   0.0000       5.640042       153.4734 
 412   0.0000       5.650965       153.7706 
 413   0.0000       5.670741       154.3087 
 414   0.0000       5.680420       154.5721 
 415   0.0000       5.722100       155.7063 
 416   0.0000       5.750531       156.4799 
 417   0.0000       5.756518       156.6428 
 418   0.0000       5.775536       157.1603 
 419   0.0000       5.786518       157.4592 
 420   0.0000       5.824748       158.4995 
 421   0.0000       5.860500       159.4723 
 422   0.0000       5.880199       160.0083 
 423   0.0000       5.921565       161.1340 
 424   0.0000       5.935295       161.5076 
 425   0.0000       5.971829       162.5017 
 426   0.0000       6.019580       163.8011 
 427   0.0000       6.030986       164.1115 
 428   0.0000       6.066158       165.0686 
 429   0.0000       6.067129       165.0950 
 430   0.0000       6.149529       167.3372 
 431   0.0000       6.158154       167.5719 
 432   0.0000       6.191600       168.4820 
 433   0.0000       6.195723       168.5942 
 434   0.0000       6.257146       170.2656 
 435   0.0000       6.305168       171.5723 
 436   0.0000       6.366302       173.2359 
 437   0.0000       6.512912       177.2253 
 438   0.0000      23.969105       652.2325 
 439   0.0000      24.162072       657.4834 
 440   0.0000      24.332768       662.1283 
 441   0.0000      24.414576       664.3544 
 442   0.0000      24.554761       668.1690 
 443   0.0000      24.583939       668.9630 
 444   0.0000      24.617015       669.8630 
 445   0.0000      24.698590       672.0828 
 446   0.0000      24.859872       676.4715 

                    ********************************
                    * MULLIKEN POPULATION ANALYSIS *
                    ********************************

-----------------------
MULLIKEN ATOMIC CHARGES
-----------------------
   0 C :   -0.072254
   1 C :   -0.072254
   2 C :    0.180394
   3 C :   -0.257950
   4 C :   -0.257948
   5 C :    0.180392
   6 C :   -0.238484
   7 C :   -0.150973
   8 C :   -0.150972
   9 H :    0.056130
  10 H :    0.056129
  11 H :    0.092630
  12 H :    0.094650
  13 H :    0.094651
  14 H :    0.092630
  15 H :    0.057453
  16 H :    0.056045
  17 H :    0.057125
  18 H :    0.062741
  19 H :    0.062740
  20 H :    0.057126
Sum of atomic charges:   -0.0000000

--------------------------------
MULLIKEN REDUCED ORBITAL CHARGES
--------------------------------
  0 C s       :     3.140053  s :     3.140053
      pz      :     0.982570  p :     2.790285
      px      :     0.891871
      py      :     0.915844
      dz2     :     0.024596  d :     0.132988
      dxz     :     0.026235
      dyz     :     0.024856
      dx2y2   :     0.035712
      dxy     :     0.021589
      f0      :     0.000821  f :     0.008928
      f+1     :     0.001351
      f-1     :     0.001090
      f+2     :     0.001640
      f-2     :     0.000770
      f+3     :     0.001643
      f-3     :     0.001613
  1 C s       :     3.140054  s :     3.140054
      pz      :     0.982567  p :     2.790284
      px      :     0.891870
      py      :     0.915847
      dz2     :     0.024592  d :     0.132988
      dxz     :     0.026236
      dyz     :     0.024860
      dx2y2   :     0.035712
      dxy     :     0.021588
      f0      :     0.000821  f :     0.008928
      f+1     :     0.001351
      f-1     :     0.001090
      f+2     :     0.001640
      f-2     :     0.000770
      f+3     :     0.001643
      f-3     :     0.001613
  2 C s       :     2.913157  s :     2.913157
      pz      :     0.875836  p :     2.757292
      px      :     0.910925
      py      :     0.970531
      dz2     :     0.034402  d :     0.140393
      dxz     :     0.025532
      dyz     :     0.024067
      dx2y2   :     0.030190
      dxy     :     0.026202
      f0      :     0.001497  f :     0.008764
      f+1     :     0.001171
      f-1     :     0.001466
      f+2     :     0.001016
      f-2     :     0.000963
      f+3     :     0.001347
      f-3     :     0.001304
  3 C s       :     3.216173  s :     3.216173
      pz      :     0.973337  p :     2.919531
      px      :     0.973446
      py      :     0.972748
      dz2     :     0.026545  d :     0.113762
      dxz     :     0.008369
      dyz     :     0.041273
      dx2y2   :     0.013427
      dxy     :     0.024148
      f0      :     0.001759  f :     0.008484
      f+1     :     0.000730
      f-1     :     0.001584
      f+2     :     0.001549
      f-2     :     0.000179
      f+3     :     0.001956
      f-3     :     0.000727
  4 C s       :     3.216171  s :     3.216171
      pz      :     0.973330  p :     2.919530
      px      :     0.973444
      py      :     0.972756
      dz2     :     0.026546  d :     0.113762
      dxz     :     0.008370
      dyz     :     0.041273
      dx2y2   :     0.013427
      dxy     :     0.024147
      f0      :     0.001759  f :     0.008484
      f+1     :     0.000731
      f-1     :     0.001584
      f+2     :     0.001549
      f-2     :     0.000179
      f+3     :     0.001956
      f-3     :     0.000727
  5 C s       :     2.913159  s :     2.913159
      pz      :     0.875835  p :     2.757293
      px      :     0.910926
      py      :     0.970532
      dz2     :     0.034403  d :     0.140393
      dxz     :     0.025532
      dyz     :     0.024067
      dx2y2   :     0.030188
      dxy     :     0.026202
      f0      :     0.001497  f :     0.008764
      f+1     :     0.001171
      f-1     :     0.001466
      f+2     :     0.001016
      f-2     :     0.000963
      f+3     :     0.001348
      f-3     :     0.001304
  6 C s       :     3.186361  s :     3.186361
      pz      :     1.016411  p :     2.933860
      px      :     1.026721
      py      :     0.890727
      dz2     :     0.033581  d :     0.111622
      dxz     :     0.012016
      dyz     :     0.016955
      dx2y2   :     0.030096
      dxy     :     0.018973
      f0      :     0.001141  f :     0.006642
      f+1     :     0.000574
      f-1     :     0.001007
      f+2     :     0.000669
      f-2     :     0.001031
      f+3     :     0.001209
      f-3     :     0.001010
  7 C s       :     3.128054  s :     3.128054
      pz      :     0.996547  p :     2.906802
      px      :     0.982620
      py      :     0.927634
      dz2     :     0.020984  d :     0.109324
      dxz     :     0.020502
      dyz     :     0.021728
      dx2y2   :     0.024502
      dxy     :     0.021608
      f0      :     0.000710  f :     0.006792
      f+1     :     0.000790
      f-1     :     0.000992
      f+2     :     0.001242
      f-2     :     0.000742
      f+3     :     0.001002
      f-3     :     0.001314
  8 C s       :     3.128054  s :     3.128054
      pz      :     0.996544  p :     2.906802
      px      :     0.982621
      py      :     0.927637
      dz2     :     0.020981  d :     0.109324
      dxz     :     0.020504
      dyz     :     0.021730
      dx2y2   :     0.024502
      dxy     :     0.021608
      f0      :     0.000710  f :     0.006792
      f+1     :     0.000790
      f-1     :     0.000992
      f+2     :     0.001242
      f-2     :     0.000742
      f+3     :     0.001002
      f-3     :     0.001314
  9 H s       :     0.895495  s :     0.895495
      pz      :     0.021546  p :     0.045928
      px      :     0.010364
      py      :     0.014018
      dz2     :     0.000695  d :     0.002448
      dxz     :     0.000720
      dyz     :     0.000619
      dx2y2   :     0.000254
      dxy     :     0.000159
 10 H s       :     0.895496  s :     0.895496
      pz      :     0.021545  p :     0.045928
      px      :     0.010364
      py      :     0.014019
      dz2     :     0.000695  d :     0.002448
      dxz     :     0.000720
      dyz     :     0.000619
      dx2y2   :     0.000254
      dxy     :     0.000159
 11 H s       :     0.864775  s :     0.864775
      pz      :     0.009542  p :     0.040231
      px      :     0.010506
      py      :     0.020184
      dz2     :     0.000262  d :     0.002364
      dxz     :     0.000062
      dyz     :     0.000709
      dx2y2   :     0.000630
      dxy     :     0.000701
 12 H s       :     0.866119  s :     0.866119
      pz      :     0.015868  p :     0.037175
      px      :     0.009774
      py      :     0.011533
      dz2     :     0.000698  d :     0.002056
      dxz     :     0.000260
      dyz     :     0.000590
      dx2y2   :     0.000231
      dxy     :     0.000278
 13 H s       :     0.866118  s :     0.866118
      pz      :     0.015867  p :     0.037174
      px      :     0.009773
      py      :     0.011534
      dz2     :     0.000697  d :     0.002056
      dxz     :     0.000259
      dyz     :     0.000590
      dx2y2   :     0.000231
      dxy     :     0.000278
 14 H s       :     0.864775  s :     0.864775
      pz      :     0.009542  p :     0.040231
      px      :     0.010506
      py      :     0.020183
      dz2     :     0.000262  d :     0.002364
      dxz     :     0.000062
      dyz     :     0.000709
      dx2y2   :     0.000630
      dxy     :     0.000701
 15 H s       :     0.897341  s :     0.897341
      pz      :     0.008354  p :     0.042910
      px      :     0.025961
      py      :     0.008595
      dz2     :     0.000319  d :     0.002296
      dxz     :     0.000640
      dyz     :     0.000012
      dx2y2   :     0.000582
      dxy     :     0.000742
 16 H s       :     0.899612  s :     0.899612
      pz      :     0.025247  p :     0.042126
      px      :     0.008418
      py      :     0.008462
      dz2     :     0.000785  d :     0.002217
      dxz     :     0.000653
      dyz     :     0.000733
      dx2y2   :     0.000035
      dxy     :     0.000011
 17 H s       :     0.897915  s :     0.897915
      pz      :     0.021280  p :     0.042700
      px      :     0.008944
      py      :     0.012476
      dz2     :     0.000710  d :     0.002260
      dxz     :     0.000600
      dyz     :     0.000629
      dx2y2   :     0.000200
      dxy     :     0.000120
 18 H s       :     0.893600  s :     0.893600
      pz      :     0.009707  p :     0.041440
      px      :     0.019357
      py      :     0.012375
      dz2     :     0.000335  d :     0.002220
      dxz     :     0.000530
      dyz     :     0.000181
      dx2y2   :     0.000617
      dxy     :     0.000558
 19 H s       :     0.893600  s :     0.893600
      pz      :     0.009707  p :     0.041440
      px      :     0.019357
      py      :     0.012375
      dz2     :     0.000335  d :     0.002220
      dxz     :     0.000530
      dyz     :     0.000181
      dx2y2   :     0.000617
      dxy     :     0.000558
 20 H s       :     0.897914  s :     0.897914
      pz      :     0.021279  p :     0.042701
      px      :     0.008944
      py      :     0.012477
      dz2     :     0.000710  d :     0.002260
      dxz     :     0.000600
      dyz     :     0.000629
      dx2y2   :     0.000200
      dxy     :     0.000120


                     *******************************
                     * LOEWDIN POPULATION ANALYSIS *
                     *******************************

----------------------
LOEWDIN ATOMIC CHARGES
----------------------
   0 C :   -0.013469
   1 C :   -0.013470
   2 C :   -0.036989
   3 C :    0.008236
   4 C :    0.008237
   5 C :   -0.036989
   6 C :    0.024699
   7 C :    0.016573
   8 C :    0.016575
   9 H :    0.001304
  10 H :    0.001304
  11 H :    0.003827
  12 H :   -0.002335
  13 H :   -0.002335
  14 H :    0.003827
  15 H :    0.009794
  16 H :    0.010831
  17 H :    0.001319
  18 H :   -0.001128
  19 H :   -0.001129
  20 H :    0.001319

-------------------------------
LOEWDIN REDUCED ORBITAL CHARGES
-------------------------------
  0 C s       :     2.685437  s :     2.685437
      pz      :     0.965437  p :     2.791116
      px      :     0.906432
      py      :     0.919247
      dz2     :     0.089185  d :     0.483271
      dxz     :     0.092924
      dyz     :     0.084999
      dx2y2   :     0.127663
      dxy     :     0.088499
      f0      :     0.005456  f :     0.053645
      f+1     :     0.007768
      f-1     :     0.005602
      f+2     :     0.007841
      f-2     :     0.005484
      f+3     :     0.011430
      f-3     :     0.010065
  1 C s       :     2.685437  s :     2.685437
      pz      :     0.965434  p :     2.791116
      px      :     0.906432
      py      :     0.919250
      dz2     :     0.089175  d :     0.483271
      dxz     :     0.092926
      dyz     :     0.085008
      dx2y2   :     0.127666
      dxy     :     0.088497
      f0      :     0.005455  f :     0.053645
      f+1     :     0.007768
      f-1     :     0.005602
      f+2     :     0.007840
      f-2     :     0.005483
      f+3     :     0.011431
      f-3     :     0.010065
  2 C s       :     2.678369  s :     2.678369
      pz      :     0.931165  p :     2.805365
      px      :     0.918845
      py      :     0.955356
      dz2     :     0.120821  d :     0.498704
      dxz     :     0.092488
      dyz     :     0.079610
      dx2y2   :     0.122729
      dxy     :     0.083055
      f0      :     0.007121  f :     0.054551
      f+1     :     0.008360
      f-1     :     0.009330
      f+2     :     0.007241
      f-2     :     0.008024
      f+3     :     0.006681
      f-3     :     0.007793
  3 C s       :     2.725236  s :     2.725236
      pz      :     0.949604  p :     2.824676
      px      :     0.831613
      py      :     1.043459
      dz2     :     0.088504  d :     0.397218
      dxz     :     0.038826
      dyz     :     0.162697
      dx2y2   :     0.051527
      dxy     :     0.055664
      f0      :     0.011270  f :     0.044633
      f+1     :     0.006143
      f-1     :     0.007610
      f+2     :     0.008813
      f-2     :     0.001073
      f+3     :     0.005062
      f-3     :     0.004662
  4 C s       :     2.725237  s :     2.725237
      pz      :     0.949602  p :     2.824675
      px      :     0.831612
      py      :     1.043461
      dz2     :     0.088502  d :     0.397219
      dxz     :     0.038831
      dyz     :     0.162698
      dx2y2   :     0.051528
      dxy     :     0.055660
      f0      :     0.011270  f :     0.044633
      f+1     :     0.006144
      f-1     :     0.007611
      f+2     :     0.008812
      f-2     :     0.001072
      f+3     :     0.005062
      f-3     :     0.004662
  5 C s       :     2.678368  s :     2.678368
      pz      :     0.931167  p :     2.805365
      px      :     0.918846
      py      :     0.955353
      dz2     :     0.120822  d :     0.498704
      dxz     :     0.092485
      dyz     :     0.079612
      dx2y2   :     0.122726
      dxy     :     0.083058
      f0      :     0.007122  f :     0.054551
      f+1     :     0.008361
      f-1     :     0.009331
      f+2     :     0.007240
      f-2     :     0.008023
      f+3     :     0.006681
      f-3     :     0.007794
  6 C s       :     2.688983  s :     2.688983
      pz      :     0.963431  p :     2.819978
      px      :     0.961044
      py      :     0.895503
      dz2     :     0.137064  d :     0.423883
      dxz     :     0.036054
      dyz     :     0.067571
      dx2y2   :     0.108351
      dxy     :     0.074843
      f0      :     0.004868  f :     0.042457
      f+1     :     0.004133
      f-1     :     0.006646
      f+2     :     0.005123
      f-2     :     0.008991
      f+3     :     0.005768
      f-3     :     0.006928
  7 C s       :     2.693246  s :     2.693246
      pz      :     0.975412  p :     2.855044
      px      :     0.953948
      py      :     0.925684
      dz2     :     0.073170  d :     0.392522
      dxz     :     0.066406
      dyz     :     0.084783
      dx2y2   :     0.084569
      dxy     :     0.083594
      f0      :     0.005080  f :     0.042615
      f+1     :     0.004503
      f-1     :     0.005554
      f+2     :     0.007110
      f-2     :     0.006020
      f+3     :     0.006974
      f-3     :     0.007374
  8 C s       :     2.693246  s :     2.693246
      pz      :     0.975410  p :     2.855044
      px      :     0.953948
      py      :     0.925685
      dz2     :     0.073163  d :     0.392522
      dxz     :     0.066408
      dyz     :     0.084788
      dx2y2   :     0.084569
      dxy     :     0.083594
      f0      :     0.005080  f :     0.042615
      f+1     :     0.004503
      f-1     :     0.005554
      f+2     :     0.007110
      f-2     :     0.006019
      f+3     :     0.006975
      f-3     :     0.007374
  9 H s       :     0.818348  s :     0.818348
      pz      :     0.066591  p :     0.151839
      px      :     0.038938
      py      :     0.046310
      dz2     :     0.009197  d :     0.028509
      dxz     :     0.007590
      dyz     :     0.007390
      dx2y2   :     0.002676
      dxy     :     0.001658
 10 H s       :     0.818348  s :     0.818348
      pz      :     0.066589  p :     0.151839
      px      :     0.038938
      py      :     0.046312
      dz2     :     0.009196  d :     0.028509
      dxz     :     0.007589
      dyz     :     0.007389
      dx2y2   :     0.002676
      dxy     :     0.001658
 11 H s       :     0.820036  s :     0.820036
      pz      :     0.038256  p :     0.148121
      px      :     0.042451
      py      :     0.067414
      dz2     :     0.003286  d :     0.028016
      dxz     :     0.000698
      dyz     :     0.007941
      dx2y2   :     0.007821
      dxy     :     0.008270
 12 H s       :     0.823878  s :     0.823878
      pz      :     0.062856  p :     0.151574
      px      :     0.042387
      py      :     0.046331
      dz2     :     0.008447  d :     0.026884
      dxz     :     0.004564
      dyz     :     0.007686
      dx2y2   :     0.002812
      dxy     :     0.003374
 13 H s       :     0.823878  s :     0.823878
      pz      :     0.062852  p :     0.151573
      px      :     0.042387
      py      :     0.046335
      dz2     :     0.008446  d :     0.026883
      dxz     :     0.004563
      dyz     :     0.007686
      dx2y2   :     0.002813
      dxy     :     0.003375
 14 H s       :     0.820036  s :     0.820036
      pz      :     0.038257  p :     0.148121
      px      :     0.042451
      py      :     0.067412
      dz2     :     0.003287  d :     0.028017
      dxz     :     0.000698
      dyz     :     0.007941
      dx2y2   :     0.007821
      dxy     :     0.008270
 15 H s       :     0.817188  s :     0.817188
      pz      :     0.036541  p :     0.144805
      px      :     0.068941
      py      :     0.039323
      dz2     :     0.003801  d :     0.028214
      dxz     :     0.008365
      dyz     :     0.000167
      dx2y2   :     0.007058
      dxy     :     0.008824
 16 H s       :     0.818296  s :     0.818296
      pz      :     0.069690  p :     0.143010
      px      :     0.035054
      py      :     0.038266
      dz2     :     0.009840  d :     0.027862
      dxz     :     0.008640
      dyz     :     0.008850
      dx2y2   :     0.000454
      dxy     :     0.000079
 17 H s       :     0.821338  s :     0.821338
      pz      :     0.065493  p :     0.149034
      px      :     0.039672
      py      :     0.043868
      dz2     :     0.008919  d :     0.028309
      dxz     :     0.007848
      dyz     :     0.007609
      dx2y2   :     0.002411
      dxy     :     0.001522
 18 H s       :     0.824924  s :     0.824924
      pz      :     0.043906  p :     0.148131
      px      :     0.060474
      py      :     0.043751
      dz2     :     0.004295  d :     0.028073
      dxz     :     0.007096
      dyz     :     0.002314
      dx2y2   :     0.007637
      dxy     :     0.006731
 19 H s       :     0.824925  s :     0.824925
      pz      :     0.043906  p :     0.148131
      px      :     0.060474
      py      :     0.043751
      dz2     :     0.004295  d :     0.028073
      dxz     :     0.007096
      dyz     :     0.002314
      dx2y2   :     0.007636
      dxy     :     0.006731
 20 H s       :     0.821337  s :     0.821337
      pz      :     0.065492  p :     0.149035
      px      :     0.039673
      py      :     0.043870
      dz2     :     0.008919  d :     0.028309
      dxz     :     0.007847
      dyz     :     0.007609
      dx2y2   :     0.002412
      dxy     :     0.001522


                      *****************************
                      * MAYER POPULATION ANALYSIS *
                      *****************************

  NA   - Mulliken gross atomic population
  ZA   - Total nuclear charge
  QA   - Mulliken gross atomic charge
  VA   - Mayer's total valence
  BVA  - Mayer's bonded valence
  FA   - Mayer's free valence

  ATOM       NA         ZA         QA         VA         BVA        FA
  0 C      6.0723     6.0000    -0.0723     3.8796     3.8796     0.0000
  1 C      6.0723     6.0000    -0.0723     3.8796     3.8796    -0.0000
  2 C      5.8196     6.0000     0.1804     3.7311     3.7311     0.0000
  3 C      6.2580     6.0000    -0.2580     3.9564     3.9564    -0.0000
  4 C      6.2579     6.0000    -0.2579     3.9564     3.9564     0.0000
  5 C      5.8196     6.0000     0.1804     3.7311     3.7311    -0.0000
  6 C      6.2385     6.0000    -0.2385     4.1035     4.1035    -0.0000
  7 C      6.1510     6.0000    -0.1510     3.9027     3.9027    -0.0000
  8 C      6.1510     6.0000    -0.1510     3.9027     3.9027    -0.0000
  9 H      0.9439     1.0000     0.0561     1.0214     1.0214    -0.0000
 10 H      0.9439     1.0000     0.0561     1.0214     1.0214    -0.0000
 11 H      0.9074     1.0000     0.0926     0.9908     0.9908    -0.0000
 12 H      0.9053     1.0000     0.0947     1.0150     1.0150    -0.0000
 13 H      0.9053     1.0000     0.0947     1.0150     1.0150    -0.0000
 14 H      0.9074     1.0000     0.0926     0.9908     0.9908    -0.0000
 15 H      0.9425     1.0000     0.0575     1.0296     1.0296     0.0000
 16 H      0.9440     1.0000     0.0560     1.0156     1.0156    -0.0000
 17 H      0.9429     1.0000     0.0571     1.0242     1.0242    -0.0000
 18 H      0.9373     1.0000     0.0627     1.0221     1.0221     0.0000
 19 H      0.9373     1.0000     0.0627     1.0221     1.0221     0.0000
 20 H      0.9429     1.0000     0.0571     1.0242     1.0242     0.0000

  Mayer bond orders larger than 0.100000
B(  0-C ,  1-C ) :   0.9328 B(  0-C ,  5-C ) :   0.9365 B(  0-C ,  8-C ) :   0.9366 
B(  0-C ,  9-H ) :   1.0192 B(  1-C ,  2-C ) :   0.9365 B(  1-C ,  7-C ) :   0.9366 
B(  1-C , 10-H ) :   1.0192 B(  2-C ,  3-C ) :   0.9292 B(  2-C ,  6-C ) :   0.9547 
B(  2-C , 11-H ) :   0.9789 B(  3-C ,  4-C ) :   1.9854 B(  3-C , 12-H ) :   0.9877 
B(  4-C ,  5-C ) :   0.9292 B(  4-C , 13-H ) :   0.9877 B(  5-C ,  6-C ) :   0.9547 
B(  5-C , 14-H ) :   0.9789 B(  6-C , 15-H ) :   1.0115 B(  6-C , 16-H ) :   1.0314 
B(  7-C ,  8-C ) :   0.9308 B(  7-C , 17-H ) :   1.0343 B(  7-C , 18-H ) :   1.0297 
B(  8-C , 19-H ) :   1.0297 B(  8-C , 20-H ) :   1.0343 

-------
TIMINGS
-------

Total SCF time: 0 days 0 hours 0 min 36 sec 

Total time                  ....      36.221 sec
Sum of individual times     ....      35.027 sec  ( 96.7%)

Fock matrix formation       ....      30.979 sec  ( 85.5%)
Diagonalization             ....       0.043 sec  (  0.1%)
Density matrix formation    ....       0.408 sec  (  1.1%)
Population analysis         ....       0.998 sec  (  2.8%)
Initial guess               ....       0.052 sec  (  0.1%)
Orbital Transformation      ....       0.000 sec  (  0.0%)
Orbital Orthonormalization  ....       0.040 sec  (  0.1%)
DIIS solution               ....       0.016 sec  (  0.0%)
SOSCF solution              ....       2.531 sec  (  7.0%)

Maximum memory used throughout the entire SCF-calculation: 246.6 MB


           ************************************************************
           *        Program running with 8 parallel MPI-processes     *
           *              working on a common directory               *
           ************************************************************


--------------------------------------------------------------------------------
                             ORCA-MATRIX DRIVEN CI
--------------------------------------------------------------------------------


Wavefunction type
-----------------
Correlation treatment                      ...      CCSD     
Single excitations                         ... ON
Orbital optimization                       ... OFF
Calculation of Z vector                    ... OFF
Calculation of Brueckner orbitals          ... OFF
Perturbative triple excitations            ... ON
Calculation of F12 correction              ... OFF
Frozen core treatment                      ... chemical core (18 el)
Reference Wavefunction                     ... RHF
  Internal Orbitals:     9 ...   32 ( 24 MO's/ 48 electrons)
  Virtual  Orbitals:    33 ...  446 (414 MO's              )
Number of AO's                             ...    447
Number of electrons                        ...     66
Number of correlated electrons             ...     48

Algorithmic settings
--------------------
Integral transformation                    ... All integrals via the RI transformation
K(C) Formation                             ... RI-DLPNO
   PNO-Integral Storage                    ... ON DISK
   PNO occupation number cut-off           ... 3.330e-07
   Singles PNO occupation number cut-off   ... 9.990e-09
   PNO Mulliken prescreening cut-off       ... 1.000e-03
   Domain cut-off (Mulliken population)    ... 1.000e-03
   PNO Normalization                       ...    1
Maximum number of iterations               ...        50
Convergence tolerance (max. residuum)      ... 2.500e-05
Level shift for amplitude update           ... 2.000e-01
Maximum number of DIIS vectors             ...         7
DIIS turned on at iteration                ...         0
Damping before turning on DIIS             ...     0.500
Damping after turning on DIIS              ...     0.000
Pair specific amplitude update             ... OFF
Natural orbital iterations                 ... OFF
Perturbative natural orbital generation    ... OFF
Printlevel                                 ... 2

Singles Fock matrix elements calculated using PNOs.

Memory handling:
----------------
Maximum memory for working arrays          ...  16000 MB
Data storage in matrix containers          ... UNCOMPRESSED
Data type for integral storage             ... DOUBLE
In-Core Storage of quantities:
   Amplitudes+Sigma Vector      ... NO
   J+K operators                ... NO
   DIIS vectors                 ... NO
   3-external integrals         ... NO
   4-external integrals         ... NO

Localization treatment:
-----------------------
Localization option                        ...    6
Localization threshhold                    ... -1.0e+00
Using relative localization threshhold     ... 1.0e-08
Neglect threshold for strong pairs         ... 1.000e-04 Eh
Prescreening threshold for very weak pairs ... 1.000e-06 Eh

Initializing the integral package          ... done
Localizing the valence orbitals
------------------------------------------------------------------------------
                           ORCA ORBITAL LOCALIZATION
------------------------------------------------------------------------------

Input orbitals are from                  ... P2_crest_conf_1_DLPNO.gbw
Output orbitals are to                   ... P2_crest_conf_1_DLPNO.loc
Max. number of iterations                ... 128
Localizations seeded randomly            ... off
Convergence tolerance                    ... 1.000e-06
Using relative localization threshhold   ... 1.000e-08
Treshold for strong local MOs            ... 9.500e-01
Treshold for bond MOs                    ... 8.500e-01
Operator                                 ... 0
Orbital range for localization           ... 9 to 32
Localization criterion                   ... FOSTER-BOYS (AUGMENTED HESSIAN)
Doing the dipole integrals     ... o.k.
Initial value of the localization sum :   214.335301
ITERATION   0 : L=  305.5677872593 DL=  9.12e+01 (AVERGE_DL)=    0.5749369420 
ITERATION   1 : L=  314.2923524232 DL=  8.72e+00 (AVERGE_DL)=    0.1777941038 
ITERATION   2 : L=  314.3805353804 DL=  8.82e-02 (AVERGE_DL)=    0.0178746599 
ITERATION   3 : L=  314.3806653528 DL=  1.30e-04 (AVERGE_DL)=    0.0006862321 
ITERATION   4 : L=  314.3806656629 DL=  3.10e-07 (AVERGE_DL)=    0.0000335199 
LOCALIZATION SUM CONVERGED

------------------------------------------------------
AUGMENTED HESSIAN OPTIMIZATION OF FOSTER-BOYS ORBITALS
------------------------------------------------------

Spin operator:           0
Orbital window:          9 to 32
Number of iterations:    128
Gradient tolerance:      1.000e-06
Number of pairs:         276
Davidson threshold:      2000
Diagonalization method:  LAPACK
Iter:    0   L: 314.3806656629   Grad. norm: 1.248973e-03
   *** Likely close to a maximum now. ***
       Augmented Hessian eigenvalues:  1.05e-08 -5.49e+00 -1.77e+01 -1.78e+01 ... 
Iter:    1   L: 314.3806656681   Grad. norm: 2.567679e-10
LOCALIZATION HAS CONVERGED.

Eigenvalues of the Hessian:
  0 -5.488e+00
  1 -1.772e+01
  2 -1.781e+01
  3 -1.798e+01
  4 -1.804e+01
  5 -1.820e+01
  6 -1.821e+01
  7 -1.843e+01
  8 -1.847e+01
  9 -1.864e+01
    ...


--------------------------------------------------------------------------------
                    LOCALIZED MOLECULAR ORBITAL COMPOSITIONS
--------------------------------------------------------------------------------

The Mulliken populations for each LMO on each atom are computed
The LMO`s will be ordered according to atom index and type
  (A) Strongly localized MO`s have populations of >=0.950 on one atom
  (B) Two center bond orbitals have populations of >=0.850 on two atoms
  (C) Other MO`s are considered to be `delocalized`

FOUND  -   0 strongly local MO`s
       -  24 two center bond MO`s
[...]

--------------------------
ELECTRON PAIR PRESCREENING
--------------------------

Dipole-based pair screening          .... used

   TCutDOij = 1.000000e-05
   TCutPre  = 1.000000e-06
   .... Finished loop over pairs
Total time spent in the prescreening                  ...     0.000 sec
sum of pair energies estimated for screened out pairs ...       0.000000000000 Eh
Thresholds for map construction and integral transformation for crude MP2:
   TCutMKN                    ...     1.0e-02
   TCutDO                     ...     2.0e-02
   TCutPairs                  ...     1.0e-04
   TCutPNO_CrudeMP2           ...     3.3e-07
   TCutPNOSingles_CrudeMP2    ...     1.0e-08
--------------------------------
LOCAL RI TRANSFORMATION (IAVPAO)
--------------------------------

Orbital window:       9 to 32
Number of PAOs:     447
Basis functions:    447 (171 shells)
Aux. functions:    1044 (318 shells)
Use SHARK:           on

Processing maps (0.0 sec)
Average map sizes:
   Aux shells -> MOs              24.0
   Aux shells -> PAOs            447.0
   MOs        -> AO shells       169.5
   PAOs       -> AO shells       171.0

Calculating integrals (0.8 sec, 85.461 MB)
Sorting integrals (0.1 sec, 85.450 MB)
Total time for the integral transformation: 0.9 sec
--------------------------------
INITIAL GUESS AND PNO GENERATION
--------------------------------

PNO truncation parameters                   .... 
    PAOOverlapThresh   =        1.000e-08

    TCutPairs          =        1.000e-04
    TCutPNO            =        3.330e-07
    TCutPNOSingles     =        9.990e-09
    TCutMP2Pairs       =        1.000e-05
    TCutMKN            =        1.000e-02
    TCutDO             =        2.000e-02

Pair selection                          .... not used
Type of local MP2 treatment                 .... semi-local MP2
Strategy for PNO selection                  .... occupation number selection
Pair density normalization                  .... MP2 norm
Spin component scaling                      .... not used

   .... Finished loop over pairs
Making pair pair interaction lists          ... done

                       ===========================
                        266 OF  300 PAIRS ARE KEPT CCSD PAIRS
                         34 OF  300 PAIRS ARE KEPT MP2 PAIRS FOR (T)
                          0 OF  300 PAIRS ARE SKIPPED
                       ===========================

Total time spent in the initial guess                 ...     3.185 sec
SL-MP2 correlation energy (all non-screened pairs)    ...      -1.443104008231 Eh

Initial PNO correlation energy                        ...      -1.436529950012 Eh
sum of pair energies prescreened and skipped MP2 pairs...       0.000000000000 Eh
sum of pair energies of crude MP2 skipped pairs only  ...       0.000000000000 Eh
sum of MP2 pair energies for pairs that were not kept ...      -0.001895487805 Eh
sum of PNO error estimates for the kept pairs         ...      -0.004678570414 Eh
                                                          --------------------
sum of all corrections                                         -0.006574058219
Initial total correlation energy                               -1.443104008231
Thresholds for map construction and integral transformation for fine MP2 and CCSD(T) calculation:
   TCutMKN   ...     1.0e-03
   TCutDO    ...     1.0e-02
   TCutPairs ...     1.0e-04
   TCutCMO   ...     1.0e-03
   TCutCPAO  ...     1.0e-03

Thresholds for map construction and integral transformation for strong Triples:
   TCutMKN   ...     1.0e-02
   TCutDO    ...     2.0e-02
   TCutCMO   ...     1.0e-03
   TCutCPAO  ...     1.0e-03

Thresholds for map construction and integral transformation for weak Triples:
   TCutMKN   ...     1.0e-01
   TCutDO    ...     4.0e-02
   TCutCMO   ...     1.0e-03
   TCutCPAO  ...     1.0e-03

--------------------------------
LOCAL RI TRANSFORMATION (IAVPAO)
--------------------------------

Orbital window:       9 to 32
Number of PAOs:     447
Basis functions:    447 (171 shells)
Aux. functions:    1044 (318 shells)
Use SHARK:           on

Processing maps (0.0 sec)
Average map sizes:
   Aux shells -> MOs              24.0
   Aux shells -> PAOs            447.0
   MOs        -> AO shells       169.5
   PAOs       -> AO shells       171.0

Calculating integrals (0.8 sec, 85.461 MB)
Sorting integrals (0.1 sec, 85.450 MB)
Total time for the integral transformation: 0.9 sec
--------------------------------
INITIAL GUESS AND PNO GENERATION
--------------------------------

PNO truncation parameters                   .... 
    PAOOverlapThresh   =        1.000e-08

    TCutPairs          =        1.000e-04
    TCutPNO            =        3.330e-07
    TCutPNOSingles     =        9.990e-09
    TCutMP2Pairs       =        1.000e-05
    TCutMKN            =        1.000e-03
    TCutDO             =        1.000e-02

Pair selection                          .... not used
Type of local MP2 treatment                 .... semi-local MP2
Strategy for PNO selection                  .... occupation number selection
Pair density normalization                  .... MP2 norm
Spin component scaling                      .... not used

   .... Finished loop over pairs

 PNO Occupation Number Statistics: 
  | Av. % of trace(Dij) retained        ...  98.606613397817
  | sigma^2 in % of trace(Dij) retained ...   2.35e+00
  | Av. % of trace(Di) retained         ...  99.999015686477
  | sigma^2 in % of trace(Di) retained  ...   7.78e-08
 Distributions of % trace(Dij) recovered:
  |       >= 99.9  ...    77 ( 25.7 % of all pairs)
  |   [90.0, 99.0) ...   120 ( 40.0 % of all pairs)
  |   [99.0, 99.9) ...   103 ( 34.3 % of all pairs)
 Distributions of % trace(Di) recovered :
  |       >= 99.9  ...    24 (100.0 % of all I-pairs )

Making pair pair interaction lists          ... done

                       ===========================
                        266 OF  300 PAIRS ARE KEPT
                       ===========================

Total time spent in the initial guess                 ...     5.145 sec
SL-MP2 correlation energy (all non-screened pairs)    ...      -1.444644637054 Eh

Initial PNO correlation energy                        ...      -1.438063716303 Eh
sum of pair energies estimated for screened out pairs ...       0.000000000000 Eh
sum of MP2 pair energies for pairs that were not kept ...      -0.001896061686 Eh
sum of PNO error estimates for the kept pairs         ...      -0.004684859065 Eh
                                                          --------------------
sum of all corrections                                         -0.006580920752
Initial total correlation energy                               -1.444644637054
Thresholds for map construction and integral transformation for fine MP2 and CCSD(T) calculation:
   TCutMKN   ...     1.0e-03
   TCutDO    ...     1.0e-02
   TCutPairs ...     1.0e-04
   TCutCMO   ...     1.0e-03
   TCutCPAO  ...     1.0e-03

Time for aux screen maps:            0.002
Time for maps after fine MP2:            0.012
-----------------------------
LOCAL RI TRANSFORMATION (IJV)
-----------------------------

Orbital window:       9 to 32
Basis functions:    447 (171 shells)
Aux. functions:    1044 (318 shells)
Use SHARK:           on

Processing maps (0.0 sec)
Average map sizes:
   Aux shells -> MOs(i)           24.0
   Aux shells -> MOs(j)           24.0
   MOs        -> AO shells       169.5

Calculating integrals (0.7 sec, 4.600 MB)
Sorting integrals (0.0 sec, 4.588 MB)
Total time for the integral transformation: 0.7 sec
--------------------------------
LOCAL RI TRANSFORMATION (VABPAO)
--------------------------------

Number of PAOs:     447
Basis functions:    447 (171 shells)
Aux. functions:    1044 (318 shells)
Use SHARK:           on

Processing maps (0.0 sec)
Average map sizes:
   Aux shells -> PAOs            447.0
   PAOs       -> AO shells       171.0

Calculating integrals (1.7 sec, 1591.508 MB)
Finished


-------------------------------------
Pair Pair Term precalculation with     
RI-(ij|mn) and (im|jn) transformation  
ON THE FLY                             
-------------------------------------

   IBatch   1 (of   1)              ... done (   86.147 sec)
Total EXT                           ...          86.147 sec

---------------------
RI-PNO TRANSFORMATION
---------------------

Total Number of PNOs                   ...  8686
Average number of PNOs per pair        ...    32
Maximal number of PNOs per pair        ...    64
   #pairs with  1 -  5 PNOs   :    0
   #pairs with  6 - 10 PNOs   :    8
   #pairs with 11 - 15 PNOs   :   20
   #pairs with 16 - 20 PNOs   :   30
   #pairs with 21 - 25 PNOs   :   25
   #pairs with 26 - 30 PNOs   :   39
   #pairs with 31 - 35 PNOs   :   43
   #pairs with 36 - 40 PNOs   :   22
   #pairs with 41 - 45 PNOs   :   14
   #pairs with 46 - 50 PNOs   :   22
   #pairs with 51 - 55 PNOs   :   41
   #pairs with 56 - 60 PNOs   :    1
   #pairs with 61 - 65 PNOs   :    1

Generation of (ij|ab)[P] integrals            ... on
Generation of (ia|bc)[P],(ja|bc)[P] integrals ... on
Storage of 3 and 4 external integrals         ... on
Generation of ALL (ka|bc)[P] integrals        ... on
Keep RI integrals in memory                   ... off

Ibatch:  1 (of  1)
Starting 2-4 index PNO integral generation ... done

Timings:
Total PNO integral transformation time     ...         29.323 sec
Size of the 3-external file                ...       108 MB
Size of the 4-external file                ...       622 MB
Size of the IKJL file                      ...         0 MB
Size of the all 3-external file            ...      1300 MB
Size of the 1-external file                ...         4 MB

Making pair/pair overlap matrices          ... done (    3.869 sec)
Size of the pair overlap file              ... 431 MB
Redoing the guess amplitudes               ... done (    0.003 sec)

-------------------------
FINAL STARTUP INFORMATION
-------------------------

E(0)                                       ...   -347.846736631
E(SL-MP2)                                  ...     -1.444644637
E(SL-MP2) including corrections            ...     -1.444644637
Initial E(tot)                             ...   -349.291381268
<T|T>                                      ...      0.437463546
Number of pairs included                   ... 266
Total number of pairs                      ... 300

------------------------------------------------
                  RHF COUPLED CLUSTER ITERATIONS
------------------------------------------------

Number of PNO amplitudes to be optimized   ...       330072
Number of non-PNO amplitudes               ...     45591336
Untruncated number of regular amplitudes   ...     51418800

Iter       E(tot)           E(Corr)          Delta-E          Residual     Time
  0   -349.291449108     -1.438131557      0.006513080      0.015713662    6.90
                           *** Turning on DIIS ***
  1   -349.350632976     -1.497315425     -0.059183868      0.011207525    6.78
  2   -349.389267797     -1.535950245     -0.038634820      0.006024814    6.66
  3   -349.395749058     -1.542431507     -0.006481261      0.003184095    6.62
  4   -349.397223015     -1.543905463     -0.001473957      0.001601599    6.66
  5   -349.397572537     -1.544254985     -0.000349522      0.000590431    6.65
  6   -349.397629064     -1.544311512     -0.000056527      0.000177564    6.64
  7   -349.397626422     -1.544308871      0.000002641      0.000029358    6.70
  8   -349.397625641     -1.544308090      0.000000781      0.000005789    6.69
               --- The Coupled-Cluster iterations have converged ---

----------------------
COUPLED CLUSTER ENERGY
----------------------

E(0)                                       ...   -347.846736631
E(CORR)(strong-pairs)                      ...     -1.544308090
E(CORR)(weak-pairs)                        ...     -0.006580921
E(CORR)(corrected)                         ...     -1.550889011
E(TOT)                                     ...   -349.397625641
Singles Norm <S|S>**1/2                    ...      0.062672999  
T1 diagnostic                              ...      0.009046068  

------------------
LARGEST AMPLITUDES
------------------
  12-> 33  12-> 33       0.064835
  13-> 33  13-> 33       0.057052
  13-> 33  12-> 33       0.051848
   9-> 34   9-> 34       0.044493
  20-> 34  20-> 34       0.041374
  26-> 36  26-> 36       0.040711
  23-> 36  23-> 36       0.040711
  11-> 35  11-> 35       0.040542
  15-> 35  15-> 35       0.040542
  28-> 36  28-> 36       0.038597
  27-> 36  27-> 36       0.037799
  19-> 34  19-> 34       0.036800
  18-> 34  18-> 34       0.036800
  21-> 36  21-> 36       0.036662
  22-> 36  22-> 36       0.036662
  31-> 36  31-> 36       0.035225


-------------------------------------------
DLPNO BASED TRIPLES CORRECTION
-------------------------------------------

Singles multiplier          ...  1.000000
TCutTNO                     ... 1.000e-09
TCutMP2Pairs                ... 1.000e-05
TCutDOStrong                ... 2.000e-02
TCutMKNStrong               ... 1.000e-02
TCutDOWeak                  ... 4.000e-02
TCutMKNWeak                 ... 1.000e-01

Fragment selection                          .... not used
Fock matrix occ-virt block is zero --> Setting DT_in_Triples to false.
Number of Triples that are to be computed   ...      2374

 . . . . . . . . .
10% done  
20% done  
30% done  
40% done  
50% done  
60% done  
70% done  
80% done  
90% done               (    186.517 sec)
Triples timings:
Total time for T0               ...   202.874 sec
Total time for Iterative (T)    ...     0.000 sec
Total time of overall (T)       ...   210.013 sec

Triples List generation         ...     0.000 sec
TNO generation                  ...    16.349 sec
Pair density generation         ...     0.004 sec
Look up tables                  ...     0.000 sec
Generating 3-index integrals    ...   140.515 sec
  Make 4-ind.int. from 3-ind.int...    15.109 sec
  Projecting amplitudes (D + S) ...    18.014 sec
  Downprojecting integrals      ...     0.002 sec
  Energy contr. (sum over a,b,c)...     3.118 sec
Fitting ET(->0)                 ...     0.000 sec

Everything after 3-index        ...    46.002 sec

Timing details:
 TNO integrals                  ...   153.782 sec
   Reading 3-index integrals    ...     0.515 sec
   Sorting integrals            ...    29.564 sec
       Sorting integrals 1      ...     0.002 sec
       Sorting integrals 2      ...    24.227 sec
       Sorting integrals 3      ...     1.071 sec
       Sorting integrals 4      ...     0.070 sec
       Sorting integrals 5      ...     0.175 sec
       Sorting integrals 6      ...     4.020 sec
   Calculating local VM**-1/2   ...     0.831 sec
   Orthogonal. integrals        ...     1.900 sec
   Multipl. 3-index integrals   ...   120.972 sec
   All concerning IRIab (w/TNO) ...     7.788 sec

 Calculate W0/W1                ...     9.748 sec
 W 3-ext contribution           ...     5.321 sec
 W 3-int contribution           ...     1.563 sec
 Sorting W                      ...     2.441 sec

 V exchange contribution        ...     0.896 sec

 Timings for Triples without generation
     of 3-index integrals       ...    45.998 sec
       0 weak pairs             ...    41.174 sec
       1 weak pair              ...     4.824 sec
       2 weak pairs             ...     0.000 sec
       3 weak pairs             ...     0.000 sec
  Extra time for extrapolation  ...     0.000 sec

Number of Triples   (0, 1, 2, 3 weak pairs; overall):   1894     480       0       0  (  2374)
Number of Atoms     (0, 1, 2, 3 weak pairs; overall):   16.3    13.7     0.0     0.0  (    21)
Number of PAOs      (0, 1, 2, 3 weak pairs; overall):  374.2   331.4     0.0     0.0  (   447)
Number of AuxFcns   (0, 1, 2, 3 weak pairs; overall):  470.5   350.6     0.0     0.0  (  1044)
Number of TNOs      (0, 1, 2, 3 weak pairs         ):   88.6    61.8     0.0     0.0
Aver. Number of NTNO, Atoms, PAOs, AuxFcns / Triples:   2374    83.2    15.8   365.5   446.2

Triples Correction (T)                     ...     -0.069706482
Final correlation energy                   ...     -1.620595493
E(CCSD)                                    ...   -349.397625641
E(CCSD(T))                                 ...   -349.467332124



--------------------------------------------------------------------------------
                                    TIMINGS
--------------------------------------------------------------------------------


Total execution time                   ...      425.219 sec

Localization of occupied MO's          ...        0.486 sec (  0.1%)
Fock Matrix Formation                  ...       20.295 sec (  4.8%)
Global overlap, Fock, MKN matrices     ...        0.395 sec (  0.1%)
Differential overlap integrals         ...        0.646 sec (  0.2%)
Organizing maps                        ...        0.036 sec (  0.0%)
RI 3-index integral generations        ...        4.308 sec (  1.0%)
RI-PNO integral transformation         ...      119.842 sec ( 28.2%)
Initial Guess                          ...        8.384 sec (  2.0%)
DIIS Solver                            ...        0.159 sec (  0.0%)
State Vector Update                    ...        0.012 sec (  0.0%)
Sigma-vector construction              ...       60.120 sec ( 14.1%)
  <D|H|D>(0-ext)                       ...        2.204 sec (  3.7% of sigma)
  <D|H|D>(2-ext Fock)                  ...        0.011 sec (  0.0% of sigma)
  <D|H|D>(2-ext)                       ...       14.499 sec ( 24.1% of sigma)
  <D|H|D>(4-ext)                       ...        5.407 sec (  9.0% of sigma)
  <D|H|D>(4-ext-corr)                  ...       26.779 sec ( 44.5% of sigma)
  CCSD doubles correction              ...        0.184 sec (  0.3% of sigma)
  <S|H|S>                              ...        0.632 sec (  1.1% of sigma)
  <S|H|D>(1-ext)                       ...        0.284 sec (  0.5% of sigma)
  <D|H|S>(1-ext)                       ...        0.009 sec (  0.0% of sigma)
  <S|H|D>(3-ext)                       ...        0.156 sec (  0.3% of sigma)
  Fock-dressing                        ...        6.344 sec ( 10.6% of sigma)
  Singles amplitudes                   ...        0.576 sec (  1.0% of sigma)
  (ik|jl)-dressing                     ...        1.720 sec (  2.9% of sigma)
  (ij|ab),(ia|jb)-dressing             ...        1.116 sec (  1.9% of sigma)
  Pair energies                        ...        0.005 sec (  0.0% of sigma)
Total Time for computing (T)           ...      210.026 sec ( 49.4% of ALL)


Maximum memory used throughout the entire MDCI-calculation: 8593.5 MB

-------------------------   --------------------
FINAL SINGLE POINT ENERGY      -349.467332123632
-------------------------   --------------------


                            ***************************************
                            *     ORCA property calculations      *
                            ***************************************


  WARNING: The energy has been calculated at the MDCI level but the densities
           used in the property calculations are still SCF densities
           MDCI response densities have not been calculated 
           use %mdci Density linearized end
           or  %mdci Density unrelaxed end
           or  %mdci Density orbopt end

                                    ---------------------
                                    Active property flags
                                    ---------------------



Timings for individual modules:

Sum of individual times         ...      467.635 sec (=   7.794 min)
GTO integral calculation        ...        0.576 sec (=   0.010 min)   0.1 %
SCF iterations                  ...       40.810 sec (=   0.680 min)   8.7 %
MDCI module                     ...      426.249 sec (=   7.104 min)  91.1 %
                             ****ORCA TERMINATED NORMALLY****
TOTAL RUN TIME: 0 days 0 hours 7 minutes 47 seconds 874 msec
