nohup: ignoring input

                                 *****************
                                 * O   R   C   A *
                                 *****************

                                            #,                                       
                                            ###                                      
                                            ####                                     
                                            #####                                    
                                            ######                                   
                                           ########,                                 
                                     ,,################,,,,,                         
                               ,,#################################,,                 
                          ,,##########################################,,             
                       ,#########################################, ''#####,          
                    ,#############################################,,   '####,        
                  ,##################################################,,,,####,       
                ,###########''''           ''''###############################       
              ,#####''   ,,,,##########,,,,          '''####'''          '####       
            ,##' ,,,,###########################,,,                        '##       
           ' ,,###''''                  '''############,,,                           
         ,,##''                                '''############,,,,        ,,,,,,###''
      ,#''                                            '''#######################'''  
     '                                                          ''''####''''         
             ,#######,   #######,   ,#######,      ##                                
            ,#'     '#,  ##    ##  ,#'     '#,    #''#        ######   ,####,        
            ##       ##  ##   ,#'  ##            #'  '#       #        #'  '#        
            ##       ##  #######   ##           ,######,      #####,   #    #        
            '#,     ,#'  ##    ##  '#,     ,#' ,#      #,         ##   #,  ,#        
             '#######'   ##     ##  '#######'  #'      '#     #####' # '####'        



                  #######################################################
                  #                        -***-                        #
                  #          Department of theory and spectroscopy      #
                  #    Directorship and core code : Frank Neese         #
                  #        Max Planck Institute fuer Kohlenforschung    #
                  #                Kaiser Wilhelm Platz 1               #
                  #                 D-45470 Muelheim/Ruhr               #
                  #                      Germany                        #
                  #                                                     #
                  #                  All rights reserved                #
                  #                        -***-                        #
                  #######################################################


                         Program Version 5.0.2 -  RELEASE  -


 With contributions from (in alphabetic order):
   Daniel Aravena         : Magnetic Suceptibility
   Michael Atanasov       : Ab Initio Ligand Field Theory (pilot matlab implementation)
   Alexander A. Auer      : GIAO ZORA, VPT2 properties, NMR spectrum
   Ute Becker             : Parallelization
   Giovanni Bistoni       : ED, misc. LED, open-shell LED, HFLD
   Martin Brehm           : Molecular dynamics
   Dmytro Bykov           : SCF Hessian
   Vijay G. Chilkuri      : MRCI spin determinant printing, contributions to CSF-ICE
   Dipayan Datta          : RHF DLPNO-CCSD density
   Achintya Kumar Dutta   : EOM-CC, STEOM-CC
   Dmitry Ganyushin       : Spin-Orbit,Spin-Spin,Magnetic field MRCI
   Miquel Garcia          : C-PCM and meta-GGA Hessian, CC/C-PCM, Gaussian charge scheme
   Yang Guo               : DLPNO-NEVPT2, F12-NEVPT2, CIM, IAO-localization
   Andreas Hansen         : Spin unrestricted coupled pair/coupled cluster methods
   Benjamin Helmich-Paris : MC-RPA, TRAH-SCF, COSX integrals
   Lee Huntington         : MR-EOM, pCC
   Robert Izsak           : Overlap fitted RIJCOSX, COSX-SCS-MP3, EOM
   Marcus Kettner         : VPT2
   Christian Kollmar      : KDIIS, OOCD, Brueckner-CCSD(T), CCSD density, CASPT2, CASPT2-K
   Simone Kossmann        : Meta GGA functionals, TD-DFT gradient, OOMP2, MP2 Hessian
   Martin Krupicka        : Initial AUTO-CI
   Lucas Lang             : DCDCAS
   Marvin Lechner         : AUTO-CI (C++ implementation), FIC-MRCC
   Dagmar Lenk            : GEPOL surface, SMD
   Dimitrios Liakos       : Extrapolation schemes; Compound Job, initial MDCI parallelization
   Dimitrios Manganas     : Further ROCIS development; embedding schemes
   Dimitrios Pantazis     : SARC Basis sets
   Anastasios Papadopoulos: AUTO-CI, single reference methods and gradients
   Taras Petrenko         : DFT Hessian,TD-DFT gradient, ASA, ECA, R-Raman, ABS, FL, XAS/XES, NRVS
   Peter Pinski           : DLPNO-MP2, DLPNO-MP2 Gradient
   Christoph Reimann      : Effective Core Potentials
   Marius Retegan         : Local ZFS, SOC
   Christoph Riplinger    : Optimizer, TS searches, QM/MM, DLPNO-CCSD(T), (RO)-DLPNO pert. Triples
   Tobias Risthaus        : Range-separated hybrids, TD-DFT gradient, RPA, STAB
   Michael Roemelt        : Original ROCIS implementation
   Masaaki Saitow         : Open-shell DLPNO-CCSD energy and density
   Barbara Sandhoefer     : DKH picture change effects
   Avijit Sen             : IP-ROCIS
   Kantharuban Sivalingam : CASSCF convergence, NEVPT2, FIC-MRCI
   Bernardo de Souza      : ESD, SOC TD-DFT
   Georgi Stoychev        : AutoAux, RI-MP2 NMR, DLPNO-MP2 response
   Willem Van den Heuvel  : Paramagnetic NMR
   Boris Wezisla          : Elementary symmetry handling
   Frank Wennmohs         : Technical directorship


 We gratefully acknowledge several colleagues who have allowed us to
 interface, adapt or use parts of their codes:
   Stefan Grimme, W. Hujo, H. Kruse, P. Pracht,  : VdW corrections, initial TS optimization,
                  C. Bannwarth, S. Ehlert          DFT functionals, gCP, sTDA/sTD-DF
   Ed Valeev, F. Pavosevic, A. Kumar             : LibInt (2-el integral package), F12 methods
   Garnet Chan, S. Sharma, J. Yang, R. Olivares  : DMRG
   Ulf Ekstrom                                   : XCFun DFT Library
   Mihaly Kallay                                 : mrcc  (arbitrary order and MRCC methods)
   Jiri Pittner, Ondrej Demel                    : Mk-CCSD
   Frank Weinhold                                : gennbo (NPA and NBO analysis)
   Christopher J. Cramer and Donald G. Truhlar   : smd solvation model
   Lars Goerigk                                  : TD-DFT with DH, B97 family of functionals
   V. Asgeirsson, H. Jonsson                     : NEB implementation
   FAccTs GmbH                                   : IRC, NEB, NEB-TS, DLPNO-Multilevel, CI-OPT
                                                   MM, QMMM, 2- and 3-layer-ONIOM, Crystal-QMMM,
                                                   LR-CPCM, SF, NACMEs, symmetry and pop. for TD-DFT,
                                                   nearIR, NL-DFT gradient (VV10), updates on ESD,
                                                   ML-optimized integration grids
   S Lehtola, MJT Oliveira, MAL Marques          : LibXC Library
   Liviu Ungur et al                             : ANISO software


 Your calculation uses the libint2 library for the computation of 2-el integrals
 For citations please refer to: http://libint.valeyev.net

 Your ORCA version has been built with support for libXC version: 5.1.0
 For citations please refer to: https://tddft.org/programs/libxc/

 This ORCA versions uses:
   CBLAS   interface :  Fast vector & matrix operations
   LAPACKE interface :  Fast linear algebra routines
   SCALAPACK package :  Parallel linear algebra routines
   Shared memory     :  Shared parallel matrices
   BLAS/LAPACK       :  OpenBLAS 0.3.15  USE64BITINT DYNAMIC_ARCH NO_AFFINITY SkylakeX SINGLE_THREADED
        Core in use  :  SkylakeX
   Copyright (c) 2011-2014, The OpenBLAS Project


================================================================================

----- Orbital basis set information -----
Your calculation utilizes the basis: def2-TZVPP
   F. Weigend and R. Ahlrichs, Phys. Chem. Chem. Phys. 7, 3297 (2005).

----- AuxC basis set information -----
Your calculation utilizes the auxiliary basis: def2-TZVPP/C
  H-La, Hf-Rn : A. Hellweg, C. Hattig, S. Hofener and W. Klopper, Theor. Chem. Acc. 117, 587 (2007).
        Ce-Lu : J. Chmela and M. E. Harding, Mol. Phys. (2018).

================================================================================
                                        WARNINGS
                       Please study these warnings very carefully!
================================================================================

WARNING: Old DensityContainer found on disk!
         Will remove this file - 
         If you want to keep old densities, please start your calculation with a different basename. 


WARNING: Post HF methods need fully converged wavefunctions
  ===> : Setting SCFConvForced true
         You can overwrite this default with %scf ConvForced false 


WARNING: MDCI localization with Augmented Hessian Foster-Boys
  ===> : Switching off randomization!

INFO   : the flag for use of the SHARK integral package has been found!

================================================================================
                                       INPUT FILE
================================================================================
NAME = TS1_crest_conf_1_DLPNO.inp
|  1> # TS1_crest_conf_1_DLPNO
|  2> %maxcore 16000
|  3> %pal nprocs 8 end
|  4> ! DLPNO-CCSD(T) def2-tzvpp def2-tzvpp/C
|  5> %scf maxiter 500
|  6> end
|  7> % mdci
|  8> Density None
|  9> end
| 10> % elprop
| 11> Dipole False
| 12> end
| 13> * xyz 0 1
| 14>  C  -0.85603500  -0.24863400  -1.15732600
| 15>  C  -1.00436600   1.05004700  -0.70532500
| 16>  C  -1.00423800   1.05019600   0.70533500
| 17>  C  -0.85584300  -0.24838500   1.15757100
| 18>  C  -1.14611900  -1.16773000   0.00024300
| 19>  C   1.38887300  -0.51625400   0.66916500
| 20>  C   1.38866300  -0.51644300  -0.66934900
| 21>  C   1.94547700   0.69022100  -0.00031500
| 22>  H  -0.92183800  -0.55303100  -2.19206300
| 23>  H  -1.01357700   1.93376000  -1.32749100
| 24>  H  -1.01332600   1.93403600   1.32732300
| 25>  H  -0.92145100  -0.55257200   2.19238100
| 26>  H  -0.60593700  -2.11214400   0.00030100
| 27>  H  -2.22191300  -1.39965300   0.00036000
| 28>  H   1.60238900  -1.14579400   1.51398700
| 29>  H   1.60223900  -1.14627400  -1.51394100
| 30>  H   3.01771200   0.88300100  -0.00045600
| 31>  H   1.33722900   1.60055900  -0.00039500
| 32> **                         ****END OF INPUT****
================================================================================

                       ****************************
                       * Single Point Calculation *
                       ****************************

---------------------------------
CARTESIAN COORDINATES (ANGSTROEM)
---------------------------------
  C     -0.856035   -0.248634   -1.157326
  C     -1.004366    1.050047   -0.705325
  C     -1.004238    1.050196    0.705335
  C     -0.855843   -0.248385    1.157571
  C     -1.146119   -1.167730    0.000243
  C      1.388873   -0.516254    0.669165
  C      1.388663   -0.516443   -0.669349
  C      1.945477    0.690221   -0.000315
  H     -0.921838   -0.553031   -2.192063
  H     -1.013577    1.933760   -1.327491
  H     -1.013326    1.934036    1.327323
  H     -0.921451   -0.552572    2.192381
  H     -0.605937   -2.112144    0.000301
  H     -2.221913   -1.399653    0.000360
  H      1.602389   -1.145794    1.513987
  H      1.602239   -1.146274   -1.513941
  H      3.017712    0.883001   -0.000456
  H      1.337229    1.600559   -0.000395

----------------------------
CARTESIAN COORDINATES (A.U.)
----------------------------
  NO LB      ZA    FRAG     MASS         X           Y           Z
   0 C     6.0000    0    12.011   -1.617672   -0.469850   -2.187029
   1 C     6.0000    0    12.011   -1.897977    1.984301   -1.332871
   2 C     6.0000    0    12.011   -1.897735    1.984583    1.332890
   3 C     6.0000    0    12.011   -1.617309   -0.469380    2.187492
   4 C     6.0000    0    12.011   -2.165851   -2.206690    0.000459
   5 C     6.0000    0    12.011    2.624590   -0.975579    1.264539
   6 C     6.0000    0    12.011    2.624193   -0.975936   -1.264886
   7 C     6.0000    0    12.011    3.676419    1.304329   -0.000595
   8 H     1.0000    0     1.008   -1.742021   -1.045077   -4.142399
   9 H     1.0000    0     1.008   -1.915383    3.654277   -2.508594
  10 H     1.0000    0     1.008   -1.914909    3.654798    2.508277
  11 H     1.0000    0     1.008   -1.741290   -1.044210    4.143000
  12 H     1.0000    0     1.008   -1.145055   -3.991374    0.000569
  13 H     1.0000    0     1.008   -4.198807   -2.644961    0.000680
  14 H     1.0000    0     1.008    3.028076   -2.165237    2.861021
  15 H     1.0000    0     1.008    3.027793   -2.166144   -2.860934
  16 H     1.0000    0     1.008    5.702649    1.668630   -0.000862
  17 H     1.0000    0     1.008    2.526997    3.024618   -0.000746

--------------------------------
INTERNAL COORDINATES (ANGSTROEM)
--------------------------------
 C      0   0   0     0.000000000000     0.00000000     0.00000000
 C      1   0   0     1.383068808600     0.00000000     0.00000000
 C      2   1   0     1.410660013676   109.08070447     0.00000000
 C      3   2   1     1.383058599367   109.08030678     0.00000000
 C      1   2   3     1.506270949741   107.52619869    15.86501545
 C      4   3   2     2.312800065430    98.26962272    73.97888666
 C      6   4   3     1.338514029817   102.18326309   291.67193300
 C      6   4   3     1.487814978027   111.35835290   357.48779220
 H      1   2   3     1.080586982888   124.81446413   173.53931809
 H      2   1   3     1.080797872151   125.48883195   174.04981396
 H      3   2   1     1.080798227926   125.13991521   174.07490026
 H      4   3   2     1.080585895120   124.81469376   186.46004862
 H      5   1   2     1.087986396920   115.72695394   210.84001801
 H      5   1   2     1.100509437512   108.47742638    89.84593287
 H      6   4   3     1.075004142104    95.43060781   145.76965126
 H      7   6   4     1.075005787334   141.78678946   244.45092526
 H      8   6   4     1.089427392489   120.78090135   159.28439288
 H      8   6   4     1.094842870072   117.80366277    12.14328382

---------------------------
INTERNAL COORDINATES (A.U.)
---------------------------
 C      0   0   0     0.000000000000     0.00000000     0.00000000
 C      1   0   0     2.613621272623     0.00000000     0.00000000
 C      2   1   0     2.665761093922   109.08070447     0.00000000
 C      3   2   1     2.613601979968   109.08030678     0.00000000
 C      1   2   3     2.846439578492   107.52619869    15.86501545
 C      4   3   2     4.370558726178    98.26962272    73.97888666
 C      6   4   3     2.529424942765   102.18326309   291.67193300
 C      6   4   3     2.811562846417   111.35835290   357.48779220
 H      1   2   3     2.042013461539   124.81446413   173.53931809
 H      2   1   3     2.042411984490   125.48883195   174.04981396
 H      3   2   1     2.042412656808   125.13991521   174.07490026
 H      4   3   2     2.042011405956   124.81469376   186.46004862
 H      5   1   2     2.055996327611   115.72695394   210.84001801
 H      5   1   2     2.079661444694   108.47742638    89.84593287
 H      6   4   3     2.031463421407    95.43060781   145.76965126
 H      7   6   4     2.031466530441   141.78678946   244.45092526
 H      8   6   4     2.058719414597   120.78090135   159.28439288
 H      8   6   4     2.068953184113   117.80366277    12.14328382

---------------------
BASIS SET INFORMATION
---------------------
There are 2 groups of distinct atoms

 Group   1 Type C   : 11s6p2d1f contracted to 5s3p2d1f pattern {62111/411/11/1}
 Group   2 Type H   : 5s2p1d contracted to 3s2p1d pattern {311/11/1}

Atom   0C    basis set group =>   1
Atom   1C    basis set group =>   1
Atom   2C    basis set group =>   1
Atom   3C    basis set group =>   1
Atom   4C    basis set group =>   1
Atom   5C    basis set group =>   1
Atom   6C    basis set group =>   1
Atom   7C    basis set group =>   1
Atom   8H    basis set group =>   2
Atom   9H    basis set group =>   2
Atom  10H    basis set group =>   2
Atom  11H    basis set group =>   2
Atom  12H    basis set group =>   2
Atom  13H    basis set group =>   2
Atom  14H    basis set group =>   2
Atom  15H    basis set group =>   2
Atom  16H    basis set group =>   2
Atom  17H    basis set group =>   2
---------------------------------
AUXILIARY/C BASIS SET INFORMATION
---------------------------------
There are 2 groups of distinct atoms

 Group   1 Type C   : 8s6p5d3f1g contracted to 8s6p4d3f1g pattern {11111111/111111/2111/111/1}
 Group   2 Type H   : 4s3p2d1f contracted to 4s3p2d1f pattern {1111/111/11/1}

Atom   0C    basis set group =>   1
Atom   1C    basis set group =>   1
Atom   2C    basis set group =>   1
Atom   3C    basis set group =>   1
Atom   4C    basis set group =>   1
Atom   5C    basis set group =>   1
Atom   6C    basis set group =>   1
Atom   7C    basis set group =>   1
Atom   8H    basis set group =>   2
Atom   9H    basis set group =>   2
Atom  10H    basis set group =>   2
Atom  11H    basis set group =>   2
Atom  12H    basis set group =>   2
Atom  13H    basis set group =>   2
Atom  14H    basis set group =>   2
Atom  15H    basis set group =>   2
Atom  16H    basis set group =>   2
Atom  17H    basis set group =>   2

Checking for AutoStart:
The File: TS1_crest_conf_1_DLPNO.gbw exists
Trying to determine its content:
     ... Fine, the file contains calculation information
     ... Fine, the calculation information was read
     ... Fine, the file contains a basis set
     ... Fine, the basis set was read
     ... Fine, the file contains a geometry
     ... Fine, the geometry was read
     ... Fine, the file contains a set of orbitals
     ... Fine, the orbitals can be read
     => possible old guess file was deleted
     => GBW file was renamed to GES file
     => GES file is set as startup file
     => Guess is set to MORead
     ... now leaving AutoStart



           ************************************************************
           *        Program running with 8 parallel MPI-processes     *
           *              working on a common directory               *
           ************************************************************
------------------------------------------------------------------------------
                           ORCA GTO INTEGRAL CALCULATION
------------------------------------------------------------------------------
------------------------------------------------------------------------------
                   ___                                                        
                  /   \      - P O W E R E D   B Y -                         
                 /     \                                                     
                 |  |  |   _    _      __       _____    __    __             
                 |  |  |  | |  | |    /  \     |  _  \  |  |  /  |          
                  \  \/   | |  | |   /    \    | | | |  |  | /  /          
                 / \  \   | |__| |  /  /\  \   | |_| |  |  |/  /          
                |  |  |   |  __  | /  /__\  \  |    /   |      \           
                |  |  |   | |  | | |   __   |  |    \   |  |\   \          
                \     /   | |  | | |  |  |  |  | |\  \  |  | \   \       
                 \___/    |_|  |_| |__|  |__|  |_| \__\ |__|  \__/        
                                                                              
                      - O R C A' S   B I G   F R I E N D -                    
                                      &                                       
                       - I N T E G R A L  F E E D E R -                       
                                                                              
 v1 FN, 2020, v2 2021                                                         
------------------------------------------------------------------------------


Reading SHARK input file TS1_crest_conf_1_DLPNO.SHARKINP.tmp ... ok
----------------------
SHARK INTEGRAL PACKAGE
----------------------

Number of atoms                             ...     18
Number of basis functions                   ...    388
Number of shells                            ...    148
Maximum angular momentum                    ...      3
Integral batch strategy                     ... SHARK/LIBINT Hybrid
RI-J (if used) integral strategy            ... SPLIT-RIJ (Revised 2003 algorithm where possible)
Printlevel                                  ...      1
Contraction scheme used                     ... SEGMENTED contraction
Coulomb Range Separation                    ... NOT USED
Exchange Range Separation                   ... NOT USED
Finite Nucleus Model                        ... NOT USED
Auxiliary Coulomb fitting basis             ... NOT available
Auxiliary J/K fitting basis                 ... NOT available
Auxiliary Correlation fitting basis         ... AVAILABLE
   # of basis functions in Aux-C            ...    908
   # of shells in Aux-C                     ...    276
   Maximum angular momentum in Aux-C        ...      4
Auxiliary 'external' fitting basis          ... NOT available
Integral threshold                          ...     1.000000e-10
Primitive cut-off                           ...     1.000000e-11
Primitive pair pre-selection threshold      ...     1.000000e-11

Calculating pre-screening integrals         ... done (  0.0 sec) Dimension = 148
Organizing shell pair data                  ... done (  0.1 sec)
Shell pair information
Total number of shell pairs                 ...     11026
Shell pairs after pre-screening             ...     10335
Total number of primitive shell pairs       ...     29126
Primitive shell pairs kept                  ...     21453
          la=0 lb=0:   2276 shell pairs
          la=1 lb=0:   2910 shell pairs
          la=1 lb=1:    953 shell pairs
          la=2 lb=0:   1649 shell pairs
          la=2 lb=1:   1073 shell pairs
          la=2 lb=2:    326 shell pairs
          la=3 lb=0:    556 shell pairs
          la=3 lb=1:    350 shell pairs
          la=3 lb=2:    206 shell pairs
          la=3 lb=3:     36 shell pairs

Calculating one electron integrals          ... done (  0.0 sec)
Calculating RI/C V-Matrix + Cholesky decomp.... done (  0.0 sec)
Calculating Nuclear repulsion               ... done (  0.0 sec) ENN=    358.033859880269 Eh

SHARK setup successfully completed in   0.3 seconds

Maximum memory used throughout the entire GTOINT-calculation: 23.2 MB


           ************************************************************
           *        Program running with 8 parallel MPI-processes     *
           *              working on a common directory               *
           ************************************************************
-------------------------------------------------------------------------------
                                 ORCA SCF
-------------------------------------------------------------------------------

------------
SCF SETTINGS
------------
Hamiltonian:
 Ab initio Hamiltonian  Method          .... Hartree-Fock(GTOs)


General Settings:
 Integral files         IntName         .... TS1_crest_conf_1_DLPNO
 Hartree-Fock type      HFTyp           .... RHF
 Total Charge           Charge          ....    0
 Multiplicity           Mult            ....    1
 Number of Electrons    NEL             ....   58
 Basis Dimension        Dim             ....  388
 Nuclear Repulsion      ENuc            ....    358.0338598803 Eh

Convergence Acceleration:
 DIIS                   CNVDIIS         .... on
   Start iteration      DIISMaxIt       ....    12
   Startup error        DIISStart       ....  0.200000
   # of expansion vecs  DIISMaxEq       ....     5
   Bias factor          DIISBfac        ....   1.050
   Max. coefficient     DIISMaxC        ....  10.000
 Trust-Rad. Augm. Hess. CNVTRAH         .... auto
   Auto Start mean grad. ratio tolernc. ....  1.125000
   Auto Start start iteration           ....     1
   Auto Start num. interpolation iter.  ....    10
   Max. Number of Micro iterations      ....    16
   Max. Number of Macro iterations      .... Maxiter - #DIIS iter
   Number of Davidson start vectors     ....     2
   Converg. threshold I  (grad. norm)   ....   5.000e-05
   Converg. threshold II (energy diff.) ....   1.000e-06
   Grad. Scal. Fac. for Micro threshold ....   0.100
   Minimum threshold for Micro iter.    ....   0.010
   NR start threshold (gradient norm)   ....   0.001
   Initial trust radius                 ....   0.400
   Minimum AH scaling param. (alpha)    ....   1.000
   Maximum AH scaling param. (alpha)    .... 1000.000
   Orbital update algorithm             .... Taylor
   White noise on init. David. guess    .... on
   Maximum white noise                  ....   0.010
   Quad. conv. algorithm                .... NR
 SOSCF                  CNVSOSCF        .... on
   Start iteration      SOSCFMaxIt      ....   150
   Startup grad/error   SOSCFStart      ....  0.003300
 Level Shifting         CNVShift        .... on
   Level shift para.    LevelShift      ....    0.2500
   Turn off err/grad.   ShiftErr        ....    0.0010
 Zerner damping         CNVZerner       .... off
 Static damping         CNVDamp         .... on
   Fraction old density DampFac         ....    0.7000
   Max. Damping (<1)    DampMax         ....    0.9800
   Min. Damping (>=0)   DampMin         ....    0.0000
   Turn off err/grad.   DampErr         ....    0.1000
 Fernandez-Rico         CNVRico         .... off

SCF Procedure:
 Maximum # iterations   MaxIter         ....   500
 SCF integral mode      SCFMode         .... Direct
   Integral package                     .... SHARK and LIBINT hybrid scheme
 Reset frequency        DirectResetFreq ....    20
 Integral Threshold     Thresh          ....  1.000e-10 Eh
 Primitive CutOff       TCut            ....  1.000e-11 Eh

Convergence Tolerance:
 Convergence Check Mode ConvCheckMode   .... Total+1el-Energy
 Convergence forced     ConvForced      .... 1
 Energy Change          TolE            ....  1.000e-06 Eh
 1-El. energy change                    ....  1.000e-03 Eh
 Orbital Gradient       TolG            ....  5.000e-05
 Orbital Rotation angle TolX            ....  5.000e-05
 DIIS Error             TolErr          ....  1.000e-06


Diagonalization of the overlap matrix:
Smallest eigenvalue                        ... 2.730e-05
Time for diagonalization                   ...    0.017 sec
Threshold for overlap eigenvalues          ... 1.000e-08
Number of eigenvalues below threshold      ... 0
Time for construction of square roots      ...    0.009 sec
Total time needed                          ...    0.027 sec

---------------------
INITIAL GUESS: MOREAD
---------------------
Guess MOs are being read from file: TS1_crest_conf_1_DLPNO.ges
Input Geometry matches current geometry (good)
Input basis set matches current basis set (good)
MOs were renormalized
MOs were reorthogonalized (Cholesky)
                      ------------------
                      INITIAL GUESS DONE (   0.0 sec)
                      ------------------
--------------
SCF ITERATIONS
--------------
ITER       Energy         Delta-E        Max-DP      RMS-DP      [F,P]     Damp
               ***  Starting incremental Fock matrix formation  ***
                      *** Initiating the SOSCF procedure ***
                      *** Re-Reading the Fockian *** 
                      *** Removing any level shift *** 
ITER      Energy       Delta-E        Grad      Rot      Max-DP    RMS-DP
  0   -308.67939300 -308.6793930006  0.000003  0.000003  0.000007  0.000000
               *** Restarting incremental Fock matrix formation ***
                 **** Energy Check signals convergence ****
              ***Rediagonalizing the Fockian in SOSCF/NRSCF***

               *****************************************************
               *                     SUCCESS                       *
               *           SCF CONVERGED AFTER   1 CYCLES          *
               *****************************************************


----------------
TOTAL SCF ENERGY
----------------

Total Energy       :         -308.67939300 Eh           -8399.59331 eV

Components:
Nuclear Repulsion  :          358.03385988 Eh            9742.59663 eV
Electronic Energy  :         -666.71325288 Eh          -18142.18994 eV
One Electron Energy:        -1126.19607409 Eh          -30645.35316 eV
Two Electron Energy:          459.48282121 Eh           12503.16321 eV

Virial components:
Potential Energy   :         -617.01383353 Eh          -16789.79999 eV
Kinetic Energy     :          308.33444053 Eh            8390.20668 eV
Virial Ratio       :            2.00111876


---------------
SCF CONVERGENCE
---------------

  Last Energy change         ...   -5.5104e-10  Tolerance :   1.0000e-06
  Last MAX-Density change    ...    4.7752e-06  Tolerance :   1.0000e-05
  Last RMS-Density change    ...    1.2464e-07  Tolerance :   1.0000e-06
  Last Orbital Gradient      ...    1.9302e-06  Tolerance :   5.0000e-05
  Last Orbital Rotation      ...    4.3949e-06  Tolerance :   5.0000e-05

             **** THE GBW FILE WAS UPDATED (TS1_crest_conf_1_DLPNO.gbw) ****
             **** DENSITY TS1_crest_conf_1_DLPNO.scfp WAS UPDATED ****
             **** ENERGY FILE WAS UPDATED (TS1_crest_conf_1_DLPNO.en.tmp) ****
             **** THE GBW FILE WAS UPDATED (TS1_crest_conf_1_DLPNO.gbw) ****
             **** DENSITY TS1_crest_conf_1_DLPNO.scfp WAS UPDATED ****
----------------
ORBITAL ENERGIES
----------------

  NO   OCC          E(Eh)            E(eV) 
   0   2.0000     -11.235689      -305.7387 
   1   2.0000     -11.235683      -305.7385 
   2   2.0000     -11.230063      -305.5856 
   3   2.0000     -11.228347      -305.5389 
   4   2.0000     -11.226109      -305.4780 
   5   2.0000     -11.221254      -305.3458 
   6   2.0000     -11.220431      -305.3234 
   7   2.0000     -11.219320      -305.2932 
   8   2.0000      -1.167666       -31.7738 
   9   2.0000      -1.129502       -30.7353 
  10   2.0000      -0.959941       -26.1213 
  11   2.0000      -0.954966       -25.9859 
  12   2.0000      -0.808219       -21.9928 
  13   2.0000      -0.759106       -20.6563 
  14   2.0000      -0.758760       -20.6469 
  15   2.0000      -0.717810       -19.5326 
  16   2.0000      -0.697974       -18.9928 
  17   2.0000      -0.661015       -17.9871 
  18   2.0000      -0.624662       -16.9979 
  19   2.0000      -0.561492       -15.2790 
  20   2.0000      -0.546325       -14.8663 
  21   2.0000      -0.527104       -14.3432 
  22   2.0000      -0.519563       -14.1380 
  23   2.0000      -0.496161       -13.5012 
  24   2.0000      -0.461990       -12.5714 
  25   2.0000      -0.418900       -11.3988 
  26   2.0000      -0.413584       -11.2542 
  27   2.0000      -0.310638        -8.4529 
  28   2.0000      -0.302975        -8.2444 
  29   0.0000       0.130267         3.5447 
  30   0.0000       0.136228         3.7069 
  31   0.0000       0.152739         4.1562 
  32   0.0000       0.167388         4.5549 
  33   0.0000       0.171828         4.6757 
  34   0.0000       0.187460         5.1010 
  35   0.0000       0.196032         5.3343 
  36   0.0000       0.204260         5.5582 
  37   0.0000       0.204667         5.5693 
  38   0.0000       0.214991         5.8502 
  39   0.0000       0.243917         6.6373 
  40   0.0000       0.256340         6.9754 
  41   0.0000       0.259980         7.0744 
  42   0.0000       0.267111         7.2685 
  43   0.0000       0.275855         7.5064 
  44   0.0000       0.282900         7.6981 
  45   0.0000       0.301336         8.1998 
  46   0.0000       0.321313         8.7434 
  47   0.0000       0.321849         8.7580 
  48   0.0000       0.332784         9.0555 
  49   0.0000       0.334256         9.0956 
  50   0.0000       0.344836         9.3835 
  51   0.0000       0.367783        10.0079 
  52   0.0000       0.369058        10.0426 
  53   0.0000       0.388409        10.5691 
  54   0.0000       0.435988        11.8638 
  55   0.0000       0.438092        11.9211 
  56   0.0000       0.457331        12.4446 
  57   0.0000       0.480280        13.0691 
  58   0.0000       0.489282        13.3140 
  59   0.0000       0.506873        13.7927 
  60   0.0000       0.520715        14.1694 
  61   0.0000       0.530407        14.4331 
  62   0.0000       0.546311        14.8659 
  63   0.0000       0.550362        14.9761 
  64   0.0000       0.552090        15.0231 
  65   0.0000       0.560369        15.2484 
  66   0.0000       0.568721        15.4757 
  67   0.0000       0.577633        15.7182 
  68   0.0000       0.577877        15.7248 
  69   0.0000       0.602319        16.3899 
  70   0.0000       0.602352        16.3908 
  71   0.0000       0.608176        16.5493 
  72   0.0000       0.611829        16.6487 
  73   0.0000       0.619788        16.8653 
  74   0.0000       0.623821        16.9750 
  75   0.0000       0.636875        17.3303 
  76   0.0000       0.649575        17.6758 
  77   0.0000       0.654885        17.8203 
  78   0.0000       0.675646        18.3853 
  79   0.0000       0.684013        18.6129 
  80   0.0000       0.688225        18.7276 
  81   0.0000       0.706896        19.2356 
  82   0.0000       0.728745        19.8302 
  83   0.0000       0.742607        20.2074 
  84   0.0000       0.765701        20.8358 
  85   0.0000       0.771049        20.9813 
  86   0.0000       0.789617        21.4866 
  87   0.0000       0.807877        21.9834 
  88   0.0000       0.838160        22.8075 
  89   0.0000       0.838226        22.8093 
  90   0.0000       0.892356        24.2822 
  91   0.0000       0.903888        24.5960 
  92   0.0000       0.936723        25.4895 
  93   0.0000       0.955834        26.0096 
  94   0.0000       0.971747        26.4426 
  95   0.0000       0.972924        26.4746 
  96   0.0000       1.007230        27.4081 
  97   0.0000       1.023859        27.8606 
  98   0.0000       1.058773        28.8107 
  99   0.0000       1.070201        29.1216 
 100   0.0000       1.090058        29.6620 
 101   0.0000       1.106968        30.1221 
 102   0.0000       1.111707        30.2511 
 103   0.0000       1.124181        30.5905 
 104   0.0000       1.133787        30.8519 
 105   0.0000       1.140272        31.0284 
 106   0.0000       1.168207        31.7885 
 107   0.0000       1.185049        32.2468 
 108   0.0000       1.207095        32.8467 
 109   0.0000       1.216005        33.0892 
 110   0.0000       1.220448        33.2101 
 111   0.0000       1.226176        33.3659 
 112   0.0000       1.239362        33.7248 
 113   0.0000       1.254864        34.1466 
 114   0.0000       1.256384        34.1879 
 115   0.0000       1.276339        34.7309 
 116   0.0000       1.283170        34.9168 
 117   0.0000       1.296734        35.2859 
 118   0.0000       1.300245        35.3815 
 119   0.0000       1.321405        35.9573 
 120   0.0000       1.328144        36.1406 
 121   0.0000       1.348910        36.7057 
 122   0.0000       1.371822        37.3292 
 123   0.0000       1.374573        37.4040 
 124   0.0000       1.391067        37.8528 
 125   0.0000       1.393181        37.9104 
 126   0.0000       1.400126        38.0994 
 127   0.0000       1.429795        38.9067 
 128   0.0000       1.447548        39.3898 
 129   0.0000       1.456587        39.6357 
 130   0.0000       1.482809        40.3493 
 131   0.0000       1.485954        40.4349 
 132   0.0000       1.494508        40.6676 
 133   0.0000       1.514159        41.2024 
 134   0.0000       1.516395        41.2632 
 135   0.0000       1.542015        41.9604 
 136   0.0000       1.552252        42.2389 
 137   0.0000       1.556032        42.3418 
 138   0.0000       1.565615        42.6025 
 139   0.0000       1.575944        42.8836 
 140   0.0000       1.593317        43.3563 
 141   0.0000       1.599758        43.5316 
 142   0.0000       1.619351        44.0648 
 143   0.0000       1.641222        44.6599 
 144   0.0000       1.645299        44.7709 
 145   0.0000       1.664962        45.3059 
 146   0.0000       1.698030        46.2057 
 147   0.0000       1.708286        46.4848 
 148   0.0000       1.716850        46.7179 
 149   0.0000       1.757639        47.8278 
 150   0.0000       1.764344        48.0103 
 151   0.0000       1.769909        48.1617 
 152   0.0000       1.791066        48.7374 
 153   0.0000       1.811284        49.2875 
 154   0.0000       1.831150        49.8281 
 155   0.0000       1.833204        49.8840 
 156   0.0000       1.847211        50.2652 
 157   0.0000       1.871101        50.9152 
 158   0.0000       1.874283        51.0018 
 159   0.0000       1.927853        52.4595 
 160   0.0000       1.933970        52.6260 
 161   0.0000       1.961071        53.3635 
 162   0.0000       1.965402        53.4813 
 163   0.0000       1.990716        54.1701 
 164   0.0000       2.012690        54.7681 
 165   0.0000       2.020996        54.9941 
 166   0.0000       2.039298        55.4921 
 167   0.0000       2.070855        56.3508 
 168   0.0000       2.080848        56.6228 
 169   0.0000       2.110971        57.4424 
 170   0.0000       2.121694        57.7342 
 171   0.0000       2.158415        58.7335 
 172   0.0000       2.232569        60.7513 
 173   0.0000       2.237531        60.8863 
 174   0.0000       2.267475        61.7011 
 175   0.0000       2.297098        62.5072 
 176   0.0000       2.318788        63.0974 
 177   0.0000       2.378359        64.7184 
 178   0.0000       2.430604        66.1401 
 179   0.0000       2.463002        67.0217 
 180   0.0000       2.489254        67.7360 
 181   0.0000       2.512459        68.3675 
 182   0.0000       2.554502        69.5115 
 183   0.0000       2.557157        69.5838 
 184   0.0000       2.594066        70.5881 
 185   0.0000       2.619157        71.2709 
 186   0.0000       2.686321        73.0985 
 187   0.0000       2.686799        73.1115 
 188   0.0000       2.722921        74.0945 
 189   0.0000       2.764544        75.2271 
 190   0.0000       2.784049        75.7578 
 191   0.0000       2.809228        76.4430 
 192   0.0000       2.828200        76.9592 
 193   0.0000       2.846105        77.4464 
 194   0.0000       2.849317        77.5338 
 195   0.0000       2.868237        78.0487 
 196   0.0000       2.880306        78.3771 
 197   0.0000       2.908287        79.1385 
 198   0.0000       2.938897        79.9715 
 199   0.0000       2.963785        80.6487 
 200   0.0000       2.988745        81.3279 
 201   0.0000       2.989838        81.3576 
 202   0.0000       3.009440        81.8910 
 203   0.0000       3.010065        81.9080 
 204   0.0000       3.034545        82.5742 
 205   0.0000       3.062994        83.3483 
 206   0.0000       3.070615        83.5557 
 207   0.0000       3.086544        83.9891 
 208   0.0000       3.091504        84.1241 
 209   0.0000       3.123266        84.9884 
 210   0.0000       3.137040        85.3632 
 211   0.0000       3.148550        85.6764 
 212   0.0000       3.149064        85.6904 
 213   0.0000       3.184406        86.6521 
 214   0.0000       3.190972        86.8308 
 215   0.0000       3.193410        86.8971 
 216   0.0000       3.202830        87.1534 
 217   0.0000       3.235399        88.0397 
 218   0.0000       3.255977        88.5996 
 219   0.0000       3.283038        89.3360 
 220   0.0000       3.311294        90.1049 
 221   0.0000       3.318426        90.2990 
 222   0.0000       3.360080        91.4324 
 223   0.0000       3.363992        91.5389 
 224   0.0000       3.371286        91.7373 
 225   0.0000       3.381519        92.0158 
 226   0.0000       3.400177        92.5235 
 227   0.0000       3.408019        92.7369 
 228   0.0000       3.440551        93.6222 
 229   0.0000       3.457559        94.0850 
 230   0.0000       3.460503        94.1651 
 231   0.0000       3.467025        94.3425 
 232   0.0000       3.486659        94.8768 
 233   0.0000       3.499926        95.2378 
 234   0.0000       3.505239        95.3824 
 235   0.0000       3.509925        95.5099 
 236   0.0000       3.513032        95.5945 
 237   0.0000       3.551627        96.6447 
 238   0.0000       3.556982        96.7904 
 239   0.0000       3.569043        97.1186 
 240   0.0000       3.569894        97.1417 
 241   0.0000       3.586831        97.6026 
 242   0.0000       3.591577        97.7318 
 243   0.0000       3.614794        98.3635 
 244   0.0000       3.625016        98.6417 
 245   0.0000       3.630158        98.7816 
 246   0.0000       3.644981        99.1850 
 247   0.0000       3.684705       100.2659 
 248   0.0000       3.688607       100.3721 
 249   0.0000       3.707214       100.8784 
 250   0.0000       3.707649       100.8903 
 251   0.0000       3.709817       100.9492 
 252   0.0000       3.717522       101.1589 
 253   0.0000       3.751582       102.0857 
 254   0.0000       3.758792       102.2819 
 255   0.0000       3.764991       102.4506 
 256   0.0000       3.777285       102.7851 
 257   0.0000       3.790482       103.1443 
 258   0.0000       3.815449       103.8237 
 259   0.0000       3.827139       104.1417 
 260   0.0000       3.854823       104.8951 
 261   0.0000       3.860293       105.0439 
 262   0.0000       3.886768       105.7643 
 263   0.0000       3.888031       105.7987 
 264   0.0000       3.904585       106.2491 
 265   0.0000       3.917739       106.6071 
 266   0.0000       3.920384       106.6791 
 267   0.0000       3.932832       107.0178 
 268   0.0000       3.961851       107.8075 
 269   0.0000       3.976095       108.1950 
 270   0.0000       3.993375       108.6652 
 271   0.0000       4.010976       109.1442 
 272   0.0000       4.011430       109.1565 
 273   0.0000       4.034254       109.7776 
 274   0.0000       4.037570       109.8679 
 275   0.0000       4.045952       110.0960 
 276   0.0000       4.062495       110.5461 
 277   0.0000       4.074557       110.8743 
 278   0.0000       4.085413       111.1697 
 279   0.0000       4.108994       111.8114 
 280   0.0000       4.115591       111.9909 
 281   0.0000       4.149878       112.9239 
 282   0.0000       4.170693       113.4903 
 283   0.0000       4.185333       113.8887 
 284   0.0000       4.196267       114.1862 
 285   0.0000       4.204614       114.4134 
 286   0.0000       4.223360       114.9235 
 287   0.0000       4.229270       115.0843 
 288   0.0000       4.239143       115.3529 
 289   0.0000       4.251996       115.7027 
 290   0.0000       4.258921       115.8911 
 291   0.0000       4.270651       116.2103 
 292   0.0000       4.295770       116.8938 
 293   0.0000       4.301926       117.0614 
 294   0.0000       4.327893       117.7679 
 295   0.0000       4.358676       118.6056 
 296   0.0000       4.380216       119.1917 
 297   0.0000       4.389400       119.4416 
 298   0.0000       4.391789       119.5067 
 299   0.0000       4.404967       119.8652 
 300   0.0000       4.444672       120.9457 
 301   0.0000       4.457391       121.2918 
 302   0.0000       4.460924       121.3879 
 303   0.0000       4.485609       122.0596 
 304   0.0000       4.504047       122.5614 
 305   0.0000       4.530789       123.2890 
 306   0.0000       4.533505       123.3629 
 307   0.0000       4.539242       123.5191 
 308   0.0000       4.582724       124.7023 
 309   0.0000       4.583328       124.7187 
 310   0.0000       4.591245       124.9341 
 311   0.0000       4.609921       125.4423 
 312   0.0000       4.624581       125.8412 
 313   0.0000       4.627753       125.9276 
 314   0.0000       4.646604       126.4405 
 315   0.0000       4.669983       127.0767 
 316   0.0000       4.694599       127.7465 
 317   0.0000       4.706472       128.0696 
 318   0.0000       4.708299       128.1193 
 319   0.0000       4.725966       128.6001 
 320   0.0000       4.760340       129.5354 
 321   0.0000       4.775626       129.9514 
 322   0.0000       4.781359       130.1074 
 323   0.0000       4.813199       130.9738 
 324   0.0000       4.820373       131.1690 
 325   0.0000       4.866128       132.4141 
 326   0.0000       4.871120       132.5499 
 327   0.0000       4.926440       134.0553 
 328   0.0000       4.940918       134.4492 
 329   0.0000       4.951660       134.7415 
 330   0.0000       4.978325       135.4671 
 331   0.0000       5.005532       136.2075 
 332   0.0000       5.089442       138.4908 
 333   0.0000       5.103815       138.8819 
 334   0.0000       5.137586       139.8008 
 335   0.0000       5.138176       139.8169 
 336   0.0000       5.153948       140.2461 
 337   0.0000       5.190571       141.2426 
 338   0.0000       5.214097       141.8828 
 339   0.0000       5.219001       142.0162 
 340   0.0000       5.245982       142.7504 
 341   0.0000       5.246231       142.7572 
 342   0.0000       5.263305       143.2218 
 343   0.0000       5.280954       143.7021 
 344   0.0000       5.305313       144.3649 
 345   0.0000       5.338105       145.2572 
 346   0.0000       5.370348       146.1346 
 347   0.0000       5.408573       147.1747 
 348   0.0000       5.419811       147.4806 
 349   0.0000       5.456751       148.4857 
 350   0.0000       5.472298       148.9088 
 351   0.0000       5.503174       149.7490 
 352   0.0000       5.522362       150.2711 
 353   0.0000       5.548571       150.9843 
 354   0.0000       5.575261       151.7106 
 355   0.0000       5.596434       152.2867 
 356   0.0000       5.625069       153.0659 
 357   0.0000       5.640095       153.4748 
 358   0.0000       5.644420       153.5925 
 359   0.0000       5.676342       154.4611 
 360   0.0000       5.686470       154.7367 
 361   0.0000       5.731643       155.9659 
 362   0.0000       5.755448       156.6137 
 363   0.0000       5.773518       157.1054 
 364   0.0000       5.829454       158.6275 
 365   0.0000       5.856210       159.3556 
 366   0.0000       5.875478       159.8799 
 367   0.0000       5.932991       161.4449 
 368   0.0000       5.941061       161.6645 
 369   0.0000       5.954784       162.0379 
 370   0.0000       6.040172       164.3614 
 371   0.0000       6.044760       164.4863 
 372   0.0000       6.113110       166.3462 
 373   0.0000       6.170065       167.8960 
 374   0.0000       6.182258       168.2278 
 375   0.0000       6.244120       169.9111 
 376   0.0000       6.325423       172.1235 
 377   0.0000       6.335358       172.3939 
 378   0.0000       6.383874       173.7140 
 379   0.0000       6.657256       181.1532 
 380   0.0000      23.970206       652.2625 
 381   0.0000      24.284011       660.8015 
 382   0.0000      24.321509       661.8219 
 383   0.0000      24.412161       664.2887 
 384   0.0000      24.468893       665.8324 
 385   0.0000      24.510964       666.9772 
 386   0.0000      24.659365       671.0154 
 387   0.0000      24.870013       676.7475 

                    ********************************
                    * MULLIKEN POPULATION ANALYSIS *
                    ********************************

-----------------------
MULLIKEN ATOMIC CHARGES
-----------------------
   0 C :   -0.054275
   1 C :   -0.178640
   2 C :   -0.178604
   3 C :   -0.054335
   4 C :   -0.062656
   5 C :   -0.117862
   6 C :   -0.117856
   7 C :   -0.121381
   8 H :    0.110867
   9 H :    0.100419
  10 H :    0.100417
  11 H :    0.110862
  12 H :    0.057541
  13 H :    0.081081
  14 H :    0.130186
  15 H :    0.130153
  16 H :    0.038216
  17 H :    0.025866
Sum of atomic charges:    0.0000000

--------------------------------
MULLIKEN REDUCED ORBITAL CHARGES
--------------------------------
  0 C s       :     3.091901  s :     3.091901
      pz      :     0.964247  p :     2.838469
      px      :     0.930786
      py      :     0.943437
      dz2     :     0.026631  d :     0.115599
      dxz     :     0.007622
      dyz     :     0.036973
      dx2y2   :     0.020692
      dxy     :     0.023681
      f0      :     0.001521  f :     0.008305
      f+1     :     0.000280
      f-1     :     0.001914
      f+2     :     0.001470
      f-2     :     0.000974
      f+3     :     0.001281
      f-3     :     0.000865
  1 C s       :     3.151457  s :     3.151457
      pz      :     0.927730  p :     2.898374
      px      :     0.969701
      py      :     1.000942
      dz2     :     0.033292  d :     0.119792
      dxz     :     0.018853
      dyz     :     0.039380
      dx2y2   :     0.012965
      dxy     :     0.015303
      f0      :     0.001558  f :     0.009017
      f+1     :     0.001372
      f-1     :     0.002226
      f+2     :     0.001167
      f-2     :     0.000317
      f+3     :     0.001305
      f-3     :     0.001072
  2 C s       :     3.151443  s :     3.151443
      pz      :     0.927733  p :     2.898349
      px      :     0.969664
      py      :     1.000952
      dz2     :     0.033292  d :     0.119796
      dxz     :     0.018855
      dyz     :     0.039381
      dx2y2   :     0.012966
      dxy     :     0.015302
      f0      :     0.001557  f :     0.009017
      f+1     :     0.001372
      f-1     :     0.002226
      f+2     :     0.001167
      f-2     :     0.000317
      f+3     :     0.001305
      f-3     :     0.001072
  3 C s       :     3.091936  s :     3.091936
      pz      :     0.964260  p :     2.838499
      px      :     0.930810
      py      :     0.943429
      dz2     :     0.026631  d :     0.115595
      dxz     :     0.007622
      dyz     :     0.036971
      dx2y2   :     0.020689
      dxy     :     0.023681
      f0      :     0.001521  f :     0.008305
      f+1     :     0.000279
      f-1     :     0.001914
      f+2     :     0.001470
      f-2     :     0.000974
      f+3     :     0.001281
      f-3     :     0.000865
  4 C s       :     3.036164  s :     3.036164
      pz      :     0.873107  p :     2.888223
      px      :     1.031501
      py      :     0.983615
      dz2     :     0.028878  d :     0.131484
      dxz     :     0.022468
      dyz     :     0.026613
      dx2y2   :     0.030150
      dxy     :     0.023375
      f0      :     0.000917  f :     0.006786
      f+1     :     0.000434
      f-1     :     0.001730
      f+2     :     0.001154
      f-2     :     0.001289
      f+3     :     0.000830
      f-3     :     0.000433
  5 C s       :     3.144735  s :     3.144735
      pz      :     0.961836  p :     2.852810
      px      :     0.909813
      py      :     0.981162
      dz2     :     0.023635  d :     0.109951
      dxz     :     0.025746
      dyz     :     0.035379
      dx2y2   :     0.013476
      dxy     :     0.011715
      f0      :     0.001499  f :     0.010366
      f+1     :     0.002551
      f-1     :     0.003473
      f+2     :     0.000890
      f-2     :     0.000688
      f+3     :     0.000670
      f-3     :     0.000596
  6 C s       :     3.144721  s :     3.144721
      pz      :     0.961864  p :     2.852816
      px      :     0.909846
      py      :     0.981106
      dz2     :     0.023636  d :     0.109954
      dxz     :     0.025741
      dyz     :     0.035380
      dx2y2   :     0.013479
      dxy     :     0.011718
      f0      :     0.001498  f :     0.010365
      f+1     :     0.002550
      f-1     :     0.003472
      f+2     :     0.000890
      f-2     :     0.000688
      f+3     :     0.000670
      f-3     :     0.000596
  7 C s       :     3.119008  s :     3.119008
      pz      :     1.020688  p :     2.867952
      px      :     0.976166
      py      :     0.871097
      dz2     :     0.018172  d :     0.125608
      dxz     :     0.006907
      dyz     :     0.020829
      dx2y2   :     0.041315
      dxy     :     0.038385
      f0      :     0.000542  f :     0.008814
      f+1     :     0.000887
      f-1     :     0.001824
      f+2     :     0.000620
      f-2     :     0.000924
      f+3     :     0.001637
      f-3     :     0.002379
  8 H s       :     0.849224  s :     0.849224
      pz      :     0.018972  p :     0.037802
      px      :     0.009896
      py      :     0.008935
      dz2     :     0.000768  d :     0.002106
      dxz     :     0.000497
      dyz     :     0.000701
      dx2y2   :     0.000062
      dxy     :     0.000079
  9 H s       :     0.861099  s :     0.861099
      pz      :     0.011751  p :     0.036455
      px      :     0.009605
      py      :     0.015099
      dz2     :     0.000512  d :     0.002028
      dxz     :     0.000148
      dyz     :     0.000587
      dx2y2   :     0.000432
      dxy     :     0.000348
 10 H s       :     0.861101  s :     0.861101
      pz      :     0.011749  p :     0.036454
      px      :     0.009604
      py      :     0.015101
      dz2     :     0.000512  d :     0.002028
      dxz     :     0.000148
      dyz     :     0.000587
      dx2y2   :     0.000432
      dxy     :     0.000348
 11 H s       :     0.849229  s :     0.849229
      pz      :     0.018973  p :     0.037802
      px      :     0.009895
      py      :     0.008934
      dz2     :     0.000768  d :     0.002106
      dxz     :     0.000497
      dyz     :     0.000701
      dx2y2   :     0.000062
      dxy     :     0.000078
 12 H s       :     0.896277  s :     0.896277
      pz      :     0.008374  p :     0.043880
      px      :     0.012670
      py      :     0.022836
      dz2     :     0.000205  d :     0.002301
      dxz     :     0.000129
      dyz     :     0.000630
      dx2y2   :     0.000712
      dxy     :     0.000624
 13 H s       :     0.873797  s :     0.873797
      pz      :     0.008442  p :     0.042822
      px      :     0.024557
      py      :     0.009823
      dz2     :     0.000207  d :     0.002301
      dxz     :     0.000670
      dyz     :     0.000069
      dx2y2   :     0.000579
      dxy     :     0.000776
 14 H s       :     0.827991  s :     0.827991
      pz      :     0.016599  p :     0.039995
      px      :     0.010584
      py      :     0.012812
      dz2     :     0.000632  d :     0.001828
      dxz     :     0.000297
      dyz     :     0.000572
      dx2y2   :     0.000166
      dxy     :     0.000162
 15 H s       :     0.828016  s :     0.828016
      pz      :     0.016600  p :     0.040002
      px      :     0.010584
      py      :     0.012817
      dz2     :     0.000632  d :     0.001829
      dxz     :     0.000297
      dyz     :     0.000572
      dx2y2   :     0.000166
      dxy     :     0.000162
 16 H s       :     0.916509  s :     0.916509
      pz      :     0.009692  p :     0.043012
      px      :     0.024639
      py      :     0.008681
      dz2     :     0.000209  d :     0.002263
      dxz     :     0.000633
      dyz     :     0.000067
      dx2y2   :     0.000597
      dxy     :     0.000758
 17 H s       :     0.923733  s :     0.923733
      pz      :     0.010083  p :     0.047928
      px      :     0.013494
      py      :     0.024350
      dz2     :     0.000225  d :     0.002472
      dxz     :     0.000169
      dyz     :     0.000648
      dx2y2   :     0.000835
      dxy     :     0.000595


                     *******************************
                     * LOEWDIN POPULATION ANALYSIS *
                     *******************************

----------------------
LOEWDIN ATOMIC CHARGES
----------------------
   0 C :    0.022443
   1 C :   -0.024456
   2 C :   -0.024451
   3 C :    0.022442
   4 C :   -0.026229
   5 C :    0.019835
   6 C :    0.019815
   7 C :   -0.025903
   8 H :   -0.002560
   9 H :    0.005016
  10 H :    0.005020
  11 H :   -0.002564
  12 H :    0.018794
  13 H :    0.031513
  14 H :   -0.012865
  15 H :   -0.012864
  16 H :   -0.007519
  17 H :   -0.005467

-------------------------------
LOEWDIN REDUCED ORBITAL CHARGES
-------------------------------
  0 C s       :     2.732258  s :     2.732258
      pz      :     0.976247  p :     2.787888
      px      :     0.803689
      py      :     1.007952
      dz2     :     0.120628  d :     0.412808
      dxz     :     0.025225
      dyz     :     0.124177
      dx2y2   :     0.071872
      dxy     :     0.070907
      f0      :     0.007783  f :     0.044602
      f+1     :     0.002398
      f-1     :     0.011086
      f+2     :     0.007564
      f-2     :     0.005959
      f+3     :     0.005418
      f-3     :     0.004393
  1 C s       :     2.718434  s :     2.718434
      pz      :     0.995034  p :     2.844104
      px      :     0.842381
      py      :     1.006688
      dz2     :     0.100178  d :     0.415420
      dxz     :     0.062307
      dyz     :     0.156751
      dx2y2   :     0.056797
      dxy     :     0.039386
      f0      :     0.008068  f :     0.046499
      f+1     :     0.006931
      f-1     :     0.015838
      f+2     :     0.004993
      f-2     :     0.002283
      f+3     :     0.003414
      f-3     :     0.004972
  2 C s       :     2.718433  s :     2.718433
      pz      :     0.995042  p :     2.844093
      px      :     0.842364
      py      :     1.006687
      dz2     :     0.100189  d :     0.415425
      dxz     :     0.062316
      dyz     :     0.156736
      dx2y2   :     0.056805
      dxy     :     0.039379
      f0      :     0.008066  f :     0.046500
      f+1     :     0.006931
      f-1     :     0.015841
      f+2     :     0.004991
      f-2     :     0.002285
      f+3     :     0.003413
      f-3     :     0.004972
  3 C s       :     2.732259  s :     2.732259
      pz      :     0.976253  p :     2.787899
      px      :     0.803703
      py      :     1.007944
      dz2     :     0.120642  d :     0.412797
      dxz     :     0.025217
      dyz     :     0.124159
      dx2y2   :     0.071868
      dxy     :     0.070911
      f0      :     0.007780  f :     0.044602
      f+1     :     0.002396
      f-1     :     0.011090
      f+2     :     0.007564
      f-2     :     0.005962
      f+3     :     0.005417
      f-3     :     0.004393
  4 C s       :     2.678579  s :     2.678579
      pz      :     0.923186  p :     2.855273
      px      :     0.979578
      py      :     0.952509
      dz2     :     0.109199  d :     0.446600
      dxz     :     0.076000
      dyz     :     0.100679
      dx2y2   :     0.092155
      dxy     :     0.068567
      f0      :     0.006945  f :     0.045777
      f+1     :     0.003948
      f-1     :     0.008391
      f+2     :     0.008866
      f-2     :     0.009360
      f+3     :     0.005392
      f-3     :     0.002876
  5 C s       :     2.726380  s :     2.726380
      pz      :     1.041935  p :     2.808728
      px      :     0.804736
      py      :     0.962056
      dz2     :     0.094225  d :     0.395726
      dxz     :     0.074272
      dyz     :     0.140598
      dx2y2   :     0.047618
      dxy     :     0.039014
      f0      :     0.007703  f :     0.049331
      f+1     :     0.010471
      f-1     :     0.019324
      f+2     :     0.002867
      f-2     :     0.002621
      f+3     :     0.002613
      f-3     :     0.003732
  6 C s       :     2.726388  s :     2.726388
      pz      :     1.041947  p :     2.808743
      px      :     0.804762
      py      :     0.962035
      dz2     :     0.094186  d :     0.395722
      dxz     :     0.074263
      dyz     :     0.140619
      dx2y2   :     0.047635
      dxy     :     0.039018
      f0      :     0.007703  f :     0.049332
      f+1     :     0.010472
      f-1     :     0.019320
      f+2     :     0.002866
      f-2     :     0.002623
      f+3     :     0.002614
      f-3     :     0.003734
  7 C s       :     2.687412  s :     2.687412
      pz      :     0.952776  p :     2.859292
      px      :     0.978915
      py      :     0.927601
      dz2     :     0.074009  d :     0.434009
      dxz     :     0.020184
      dyz     :     0.061407
      dx2y2   :     0.140726
      dxy     :     0.137683
      f0      :     0.000751  f :     0.045190
      f+1     :     0.004456
      f-1     :     0.011637
      f+2     :     0.003520
      f-2     :     0.004969
      f+3     :     0.009505
      f-3     :     0.010352
  8 H s       :     0.821141  s :     0.821141
      pz      :     0.072965  p :     0.154168
      px      :     0.043828
      py      :     0.037375
      dz2     :     0.010262  d :     0.027251
      dxz     :     0.007050
      dyz     :     0.008384
      dx2y2   :     0.000765
      dxy     :     0.000791
  9 H s       :     0.819312  s :     0.819312
      pz      :     0.046593  p :     0.148887
      px      :     0.042682
      py      :     0.059612
      dz2     :     0.005761  d :     0.026784
      dxz     :     0.002521
      dyz     :     0.007887
      dx2y2   :     0.005232
      dxy     :     0.005384
 10 H s       :     0.819312  s :     0.819312
      pz      :     0.046586  p :     0.148884
      px      :     0.042679
      py      :     0.059620
      dz2     :     0.005759  d :     0.026784
      dxz     :     0.002519
      dyz     :     0.007887
      dx2y2   :     0.005233
      dxy     :     0.005385
 11 H s       :     0.821143  s :     0.821143
      pz      :     0.072971  p :     0.154169
      px      :     0.043828
      py      :     0.037371
      dz2     :     0.010263  d :     0.027251
      dxz     :     0.007051
      dyz     :     0.008384
      dx2y2   :     0.000763
      dxy     :     0.000790
 12 H s       :     0.809177  s :     0.809177
      pz      :     0.036947  p :     0.143557
      px      :     0.047174
      py      :     0.059437
      dz2     :     0.002447  d :     0.028472
      dxz     :     0.001671
      dyz     :     0.007182
      dx2y2   :     0.009621
      dxy     :     0.007550
 13 H s       :     0.793626  s :     0.793626
      pz      :     0.040847  p :     0.146899
      px      :     0.069230
      py      :     0.036822
      dz2     :     0.002326  d :     0.027962
      dxz     :     0.008343
      dyz     :     0.000946
      dx2y2   :     0.007069
      dxy     :     0.009278
 14 H s       :     0.822138  s :     0.822138
      pz      :     0.061008  p :     0.162541
      px      :     0.044432
      py      :     0.057101
      dz2     :     0.008730  d :     0.028186
      dxz     :     0.005097
      dyz     :     0.008086
      dx2y2   :     0.003224
      dxy     :     0.003049
 15 H s       :     0.822137  s :     0.822137
      pz      :     0.060994  p :     0.162540
      px      :     0.044435
      py      :     0.057112
      dz2     :     0.008729  d :     0.028187
      dxz     :     0.005095
      dyz     :     0.008085
      dx2y2   :     0.003227
      dxy     :     0.003052
 16 H s       :     0.833534  s :     0.833534
      pz      :     0.043907  p :     0.146846
      px      :     0.071011
      py      :     0.031928
      dz2     :     0.002439  d :     0.027139
      dxz     :     0.008701
      dyz     :     0.000645
      dx2y2   :     0.007503
      dxy     :     0.007850
 17 H s       :     0.823996  s :     0.823996
      pz      :     0.043622  p :     0.153647
      px      :     0.054405
      py      :     0.055620
      dz2     :     0.002388  d :     0.027824
      dxz     :     0.002431
      dyz     :     0.007354
      dx2y2   :     0.008109
      dxy     :     0.007542


                      *****************************
                      * MAYER POPULATION ANALYSIS *
                      *****************************

  NA   - Mulliken gross atomic population
  ZA   - Total nuclear charge
  QA   - Mulliken gross atomic charge
  VA   - Mayer's total valence
  BVA  - Mayer's bonded valence
  FA   - Mayer's free valence

  ATOM       NA         ZA         QA         VA         BVA        FA
  0 C      6.0543     6.0000    -0.0543     3.9043     3.9043     0.0000
  1 C      6.1786     6.0000    -0.1786     3.9919     3.9919    -0.0000
  2 C      6.1786     6.0000    -0.1786     3.9919     3.9919     0.0000
  3 C      6.0543     6.0000    -0.0543     3.9043     3.9043    -0.0000
  4 C      6.0627     6.0000    -0.0627     3.9341     3.9341     0.0000
  5 C      6.1179     6.0000    -0.1179     3.8427     3.8427    -0.0000
  6 C      6.1179     6.0000    -0.1179     3.8427     3.8427     0.0000
  7 C      6.1214     6.0000    -0.1214     4.0210     4.0210     0.0000
  8 H      0.8891     1.0000     0.1109     0.9970     0.9970     0.0000
  9 H      0.8996     1.0000     0.1004     1.0127     1.0127    -0.0000
 10 H      0.8996     1.0000     0.1004     1.0127     1.0127     0.0000
 11 H      0.8891     1.0000     0.1109     0.9970     0.9970    -0.0000
 12 H      0.9425     1.0000     0.0575     1.0145     1.0145     0.0000
 13 H      0.9189     1.0000     0.0811     1.0204     1.0204    -0.0000
 14 H      0.8698     1.0000     0.1302     0.9896     0.9896     0.0000
 15 H      0.8698     1.0000     0.1302     0.9896     0.9896    -0.0000
 16 H      0.9618     1.0000     0.0382     1.0127     1.0127     0.0000
 17 H      0.9741     1.0000     0.0259     1.0118     1.0118    -0.0000

  Mayer bond orders larger than 0.100000
B(  0-C ,  1-C ) :   1.6268 B(  0-C ,  4-C ) :   0.9762 B(  0-C ,  6-C ) :   0.2378 
B(  0-C ,  8-H ) :   0.9814 B(  1-C ,  2-C ) :   1.3312 B(  1-C ,  9-H ) :   0.9760 
B(  2-C ,  3-C ) :   1.6268 B(  2-C , 10-H ) :   0.9760 B(  3-C ,  4-C ) :   0.9762 
B(  3-C ,  5-C ) :   0.2378 B(  3-C , 11-H ) :   0.9814 B(  4-C , 12-H ) :   1.0076 
B(  4-C , 13-H ) :   0.9791 B(  5-C ,  6-C ) :   1.6147 B(  5-C ,  7-C ) :   0.9796 
B(  5-C , 14-H ) :   0.9715 B(  6-C ,  7-C ) :   0.9796 B(  6-C , 15-H ) :   0.9715 
B(  7-C , 16-H ) :   1.0177 B(  7-C , 17-H ) :   1.0152 

-------
TIMINGS
-------

Total SCF time: 0 days 0 hours 0 min 16 sec 

Total time                  ....      16.095 sec
Sum of individual times     ....      15.759 sec  ( 97.9%)

Fock matrix formation       ....      15.633 sec  ( 97.1%)
Diagonalization             ....       0.029 sec  (  0.2%)
Density matrix formation    ....       0.002 sec  (  0.0%)
Population analysis         ....       0.022 sec  (  0.1%)
Initial guess               ....       0.037 sec  (  0.2%)
Orbital Transformation      ....       0.000 sec  (  0.0%)
Orbital Orthonormalization  ....       0.026 sec  (  0.2%)
DIIS solution               ....       0.012 sec  (  0.1%)
SOSCF solution              ....       0.025 sec  (  0.2%)

Maximum memory used throughout the entire SCF-calculation: 241.7 MB


           ************************************************************
           *        Program running with 8 parallel MPI-processes     *
           *              working on a common directory               *
           ************************************************************


--------------------------------------------------------------------------------
                             ORCA-MATRIX DRIVEN CI
--------------------------------------------------------------------------------


Wavefunction type
-----------------
Correlation treatment                      ...      CCSD     
Single excitations                         ... ON
Orbital optimization                       ... OFF
Calculation of Z vector                    ... OFF
Calculation of Brueckner orbitals          ... OFF
Perturbative triple excitations            ... ON
Calculation of F12 correction              ... OFF
Frozen core treatment                      ... chemical core (16 el)
Reference Wavefunction                     ... RHF
  Internal Orbitals:     8 ...   28 ( 21 MO's/ 42 electrons)
  Virtual  Orbitals:    29 ...  387 (359 MO's              )
Number of AO's                             ...    388
Number of electrons                        ...     58
Number of correlated electrons             ...     42

Algorithmic settings
--------------------
Integral transformation                    ... All integrals via the RI transformation
K(C) Formation                             ... RI-DLPNO
   PNO-Integral Storage                    ... ON DISK
   PNO occupation number cut-off           ... 3.330e-07
   Singles PNO occupation number cut-off   ... 9.990e-09
   PNO Mulliken prescreening cut-off       ... 1.000e-03
   Domain cut-off (Mulliken population)    ... 1.000e-03
   PNO Normalization                       ...    1
Maximum number of iterations               ...        50
Convergence tolerance (max. residuum)      ... 2.500e-05
Level shift for amplitude update           ... 2.000e-01
Maximum number of DIIS vectors             ...         7
DIIS turned on at iteration                ...         0
Damping before turning on DIIS             ...     0.500
Damping after turning on DIIS              ...     0.000
Pair specific amplitude update             ... OFF
Natural orbital iterations                 ... OFF
Perturbative natural orbital generation    ... OFF
Printlevel                                 ... 2

Singles Fock matrix elements calculated using PNOs.

Memory handling:
----------------
Maximum memory for working arrays          ...  16000 MB
Data storage in matrix containers          ... UNCOMPRESSED
Data type for integral storage             ... DOUBLE
In-Core Storage of quantities:
   Amplitudes+Sigma Vector      ... NO
   J+K operators                ... NO
   DIIS vectors                 ... NO
   3-external integrals         ... NO
   4-external integrals         ... NO

Localization treatment:
-----------------------
Localization option                        ...    6
Localization threshhold                    ... -1.0e+00
Using relative localization threshhold     ... 1.0e-08
Neglect threshold for strong pairs         ... 1.000e-04 Eh
Prescreening threshold for very weak pairs ... 1.000e-06 Eh

Initializing the integral package          ... done
Localizing the valence orbitals
------------------------------------------------------------------------------
                           ORCA ORBITAL LOCALIZATION
------------------------------------------------------------------------------

Input orbitals are from                  ... TS1_crest_conf_1_DLPNO.gbw
Output orbitals are to                   ... TS1_crest_conf_1_DLPNO.loc
Max. number of iterations                ... 128
Localizations seeded randomly            ... off
Convergence tolerance                    ... 1.000e-06
Using relative localization threshhold   ... 1.000e-08
Treshold for strong local MOs            ... 9.500e-01
Treshold for bond MOs                    ... 8.500e-01
Operator                                 ... 0
Orbital range for localization           ... 8 to 28
Localization criterion                   ... FOSTER-BOYS (AUGMENTED HESSIAN)
Doing the dipole integrals     ... o.k.
Initial value of the localization sum :   194.274488
ITERATION   0 : L=  251.0506180921 DL=  5.68e+01 (AVERGE_DL)=    0.5199639634 
ITERATION   1 : L=  258.4206992857 DL=  7.37e+00 (AVERGE_DL)=    0.1873382629 
ITERATION   2 : L=  258.8814523412 DL=  4.61e-01 (AVERGE_DL)=    0.0468408173 
ITERATION   3 : L=  258.8865655596 DL=  5.11e-03 (AVERGE_DL)=    0.0049344361 
ITERATION   4 : L=  258.8868685356 DL=  3.03e-04 (AVERGE_DL)=    0.0012011423 
ITERATION   5 : L=  258.8868884100 DL=  1.99e-05 (AVERGE_DL)=    0.0003076358 
ITERATION   6 : L=  258.8868897298 DL=  1.32e-06 (AVERGE_DL)=    0.0000792749 
ITERATION   7 : L=  258.8868898172 DL=  8.74e-08 (AVERGE_DL)=    0.0000204026 
LOCALIZATION SUM CONVERGED

------------------------------------------------------
AUGMENTED HESSIAN OPTIMIZATION OF FOSTER-BOYS ORBITALS
------------------------------------------------------

Spin operator:           0
Orbital window:          8 to 28
Number of iterations:    128
Gradient tolerance:      1.000e-06
Number of pairs:         210
Davidson threshold:      2000
Diagonalization method:  LAPACK
Iter:    0   L: 258.8868898172   Grad. norm: 1.541889e-03
   *** Likely close to a maximum now. ***
       Augmented Hessian eigenvalues:  2.64e-08 -4.13e+00 -4.59e+00 -4.69e+00 ... 
Iter:    1   L: 258.8868898304   Grad. norm: 6.455640e-09
LOCALIZATION HAS CONVERGED.

Eigenvalues of the Hessian:
  0 -4.129e+00
  1 -4.593e+00
  2 -4.695e+00
  3 -1.151e+01
  4 -1.201e+01
  5 -1.204e+01
  6 -1.466e+01
  7 -1.617e+01
  8 -1.648e+01
  9 -1.694e+01
    ...


--------------------------------------------------------------------------------
                    LOCALIZED MOLECULAR ORBITAL COMPOSITIONS
--------------------------------------------------------------------------------

The Mulliken populations for each LMO on each atom are computed
The LMO`s will be ordered according to atom index and type
  (A) Strongly localized MO`s have populations of >=0.950 on one atom
  (B) Two center bond orbitals have populations of >=0.850 on two atoms
  (C) Other MO`s are considered to be `delocalized`

FOUND  -   0 strongly local MO`s
       -  21 two center bond MO`s
       -   0 significantly delocalized MO`s

Bond-like localized orbitals:
MO  28:  17H  -   0.494675  and   7C  -   0.543931
MO  27:  16H  -   0.483516  and   7C  -   0.543695
MO  26:  15H  -   0.438458  and   6C  -   0.574621
MO  25:  14H  -   0.438448  and   5C  -   0.574632
MO  24:  13H  -   0.457557  and   4C  -   0.548533
MO  23:  12H  -   0.473970  and   4C  -   0.546280
MO  22:  11H  -   0.450014  and   3C  -   0.565256
MO  21:  10H  -   0.449628  and   2C  -   0.549870
MO  20:   9H  -   0.449627  and   1C  -   0.549872
MO  19:   8H  -   0.450012  and   0C  -   0.565256
MO  18:   7C  -   0.494178  and   6C  -   0.539038
MO  17:   7C  -   0.494166  and   5C  -   0.539051
MO  16:   6C  -   0.481883  and   5C  -   0.481809
MO  15:   6C  -   0.494509  and   5C  -   0.494555
MO  14:   4C  -   0.489230  and   3C  -   0.528472
MO  13:   4C  -   0.489235  and   0C  -   0.528464
MO  12:   3C  -   0.462292  and   2C  -   0.493331
MO  11:   3C  -   0.459982  and   2C  -   0.516060
MO  10:   2C  -   0.518441  and   1C  -   0.518435
MO   9:   1C  -   0.493339  and   0C  -   0.462281
MO   8:   1C  -   0.516068  and   0C  -   0.459969
Localized MO's were stored in: TS1_crest_conf_1_DLPNO.loc

Localizing the core orbitals
------------------------------------------------------------------------------
                           ORCA ORBITAL LOCALIZATION
------------------------------------------------------------------------------

Input orbitals are from                  ... TS1_crest_conf_1_DLPNO.loc
Output orbitals are to                   ... TS1_crest_conf_1_DLPNO.loc
Max. number of iterations                ... 128
Localizations seeded randomly            ... off
Convergence tolerance                    ... 1.000e-06
Using relative localization threshhold   ... 1.000e-08
Treshold for strong local MOs            ... 9.500e-01
Treshold for bond MOs                    ... 8.500e-01
Operator                                 ... 0
Orbital range for localization           ... 0 to 7
Localization criterion                   ... FOSTER-BOYS (AUGMENTED HESSIAN)
Doing the dipole integrals     ... o.k.
Initial value of the localization sum :    77.528373
ITERATION   0 : L=   77.5283767051 DL=  3.52e-06 (AVERGE_DL)=    0.0003544963 
ITERATION   1 : L=   77.5283767051 DL=  0.00e+00 (AVERGE_DL)=    0.0000000000 
LOCALIZATION SUM CONVERGED

------------------------------------------------------
AUGMENTED HESSIAN OPTIMIZATION OF FOSTER-BOYS ORBITALS
------------------------------------------------------

Spin operator:           0
Orbital window:          0 to 7
Number of iterations:    128
Gradient tolerance:      1.000e-06
Number of pairs:         28
Davidson threshold:      2000
Diagonalization method:  LAPACK
Iter:    0   L: 77.5283767051   Grad. norm: 8.230546e-05
   *** Likely close to a maximum now. ***
       Augmented Hessian eigenvalues:  4.71e-11 -2.56e+01 -2.73e+01 -2.73e+01 ... 
Iter:    1   L: 77.5283767051   Grad. norm: 1.620758e-14
LOCALIZATION HAS CONVERGED.

Eigenvalues of the Hessian:
  0 -2.559e+01
  1 -2.732e+01
  2 -2.732e+01
  3 -2.842e+01
  4 -3.161e+01
  5 -3.161e+01
  6 -3.241e+01
  7 -3.241e+01
  8 -7.397e+01
  9 -7.397e+01
    ...


--------------------------------------------------------------------------------
                    LOCALIZED MOLECULAR ORBITAL COMPOSITIONS
--------------------------------------------------------------------------------

The Mulliken populations for each LMO on each atom are computed
The LMO`s will be ordered according to atom index and type
  (A) Strongly localized MO`s have populations of >=0.950 on one atom
  (B) Two center bond orbitals have populations of >=0.850 on two atoms
  (C) Other MO`s are considered to be `delocalized`

FOUND  -   8 strongly local MO`s
       -   0 two center bond MO`s
       -   0 significantly delocalized MO`s

Rather strongly localized orbitals:
MO   7:   7C  -   1.000702
MO   6:   6C  -   1.001472
MO   5:   5C  -   1.001471
MO   4:   4C  -   1.001606
MO   3:   3C  -   1.002704
MO   2:   2C  -   1.001542
MO   1:   1C  -   1.001542
MO   0:   0C  -   1.002704
Localized MO's were stored in: TS1_crest_conf_1_DLPNO.loc

Warning: reference  - re-canonicalizations have been set to INT 1 VIRT 1
Warning: internal orbitals are localized - no re-canonicalization of internal orbitals
Warning: UsePNO is turned on - no re-canonicalization of internal and virtual orbitals

--------------------------
CLOSED-SHELL FOCK OPERATOR
--------------------------

Restoring SHARK [2] ... ok
Time needed for Fock operator              ...           11.114 sec
Reference energy                           ...   -308.679393001

--------------
DLPNO SETTINGS (2015 fully linear scaling implementation)
--------------

TCutMKN:           1.000e-03
TCutPAO:           1.000e-03
TCutPNO:           3.330e-07
TCutPNOSingles:    9.990e-09
TCutEN:            9.700e-01
TCutPAOExt:        1.000e-01
TCutPairs:         1.000e-04
TCutPre:           1.000e-06
TCutOSV:           1.000e-06
TCutDOij:          1.000e-05
TCutDO:            1.000e-02
TCutC:             1.000e-04
TCutCPAO:          1.000e-03
TCutCMO:           1.000e-03
TScaleDOMP2PreScr: 2.000e+00
TScaleMKNMP2PreScr:1.000e+01
TScalePNOMP2PreScr:1.000e+00
PAO overlap thresh 1.000e-08
Using PNOs for Singles Fock computation
Use new domains
Use fully linear algorithm
TCutTNO:           1.000e-09
TCutMP2Pairs:      1.000e-05
TCutDOStrong:      2.000e-03
TCutMKNStrong:     1.000e-02
TCutMKNWeak:       1.000e-01
TCutDOWeak:        4.000e-03
NTCutTNO:          1

--------------------------
Mulliken population of the LMOs            ... ok
Performing proximity check                 ... No problems found
Calculating differential overlap integrals ... ok

--------------------------
ELECTRON PAIR PRESCREENING
--------------------------

Dipole-based pair screening          .... used

   TCutDOij = 1.000000e-05
   TCutPre  = 1.000000e-06
   .... Finished loop over pairs
Total time spent in the prescreening                  ...     0.000 sec
sum of pair energies estimated for screened out pairs ...       0.000000000000 Eh
Thresholds for map construction and integral transformation for crude MP2:
   TCutMKN                    ...     1.0e-02
   TCutDO                     ...     2.0e-02
   TCutPairs                  ...     1.0e-04
   TCutPNO_CrudeMP2           ...     3.3e-07
   TCutPNOSingles_CrudeMP2    ...     1.0e-08
--------------------------------
LOCAL RI TRANSFORMATION (IAVPAO)
--------------------------------

Orbital window:       8 to 28
Number of PAOs:     388
Basis functions:    388 (148 shells)
Aux. functions:     908 (276 shells)
Use SHARK:           on

Processing maps (0.0 sec)
Average map sizes:
   Aux shells -> MOs              21.0
   Aux shells -> PAOs            388.0
   MOs        -> AO shells       148.0
   PAOs       -> AO shells       148.0

Calculating integrals (0.5 sec, 56.456 MB)
Sorting integrals (0.1 sec, 56.445 MB)
Total time for the integral transformation: 0.6 sec
--------------------------------
INITIAL GUESS AND PNO GENERATION
--------------------------------

PNO truncation parameters                   .... 
    PAOOverlapThresh   =        1.000e-08

    TCutPairs          =        1.000e-04
    TCutPNO            =        3.330e-07
    TCutPNOSingles     =        9.990e-09
    TCutMP2Pairs       =        1.000e-05
    TCutMKN            =        1.000e-02
    TCutDO             =        2.000e-02

Pair selection                          .... not used
Type of local MP2 treatment                 .... semi-local MP2
Strategy for PNO selection                  .... occupation number selection
Pair density normalization                  .... MP2 norm
Spin component scaling                      .... not used

   .... Finished loop over pairs
Making pair pair interaction lists          ... done

                       ===========================
                        208 OF  231 PAIRS ARE KEPT CCSD PAIRS
                         23 OF  231 PAIRS ARE KEPT MP2 PAIRS FOR (T)
                          0 OF  231 PAIRS ARE SKIPPED
                       ===========================

Total time spent in the initial guess                 ...     2.104 sec
SL-MP2 correlation energy (all non-screened pairs)    ...      -1.288893650715 Eh

Initial PNO correlation energy                        ...      -1.283002084407 Eh
sum of pair energies prescreened and skipped MP2 pairs...       0.000000000000 Eh
sum of pair energies of crude MP2 skipped pairs only  ...       0.000000000000 Eh
sum of MP2 pair energies for pairs that were not kept ...      -0.001714019513 Eh
sum of PNO error estimates for the kept pairs         ...      -0.004177546796 Eh
                                                          --------------------
sum of all corrections                                         -0.005891566308
Initial total correlation energy                               -1.288893650715
Thresholds for map construction and integral transformation for fine MP2 and CCSD(T) calculation:
   TCutMKN   ...     1.0e-03
   TCutDO    ...     1.0e-02
   TCutPairs ...     1.0e-04
   TCutCMO   ...     1.0e-03
   TCutCPAO  ...     1.0e-03

Thresholds for map construction and integral transformation for strong Triples:
   TCutMKN   ...     1.0e-02
   TCutDO    ...     2.0e-02
   TCutCMO   ...     1.0e-03
   TCutCPAO  ...     1.0e-03

Thresholds for map construction and integral transformation for weak Triples:
   TCutMKN   ...     1.0e-01
   TCutDO    ...     4.0e-02
   TCutCMO   ...     1.0e-03
   TCutCPAO  ...     1.0e-03

--------------------------------
LOCAL RI TRANSFORMATION (IAVPAO)
--------------------------------

Orbital window:       8 to 28
Number of PAOs:     388
Basis functions:    388 (148 shells)
Aux. functions:     908 (276 shells)
Use SHARK:           on

Processing maps (0.0 sec)
Average map sizes:
   Aux shells -> MOs              21.0
   Aux shells -> PAOs            388.0
   MOs        -> AO shells       148.0
   PAOs       -> AO shells       148.0

Calculating integrals (0.5 sec, 56.456 MB)
Sorting integrals (0.1 sec, 56.445 MB)
Total time for the integral transformation: 0.6 sec
--------------------------------
INITIAL GUESS AND PNO GENERATION
--------------------------------

PNO truncation parameters                   .... 
    PAOOverlapThresh   =        1.000e-08

    TCutPairs          =        1.000e-04
    TCutPNO            =        3.330e-07
    TCutPNOSingles     =        9.990e-09
    TCutMP2Pairs       =        1.000e-05
    TCutMKN            =        1.000e-03
    TCutDO             =        1.000e-02

Pair selection                          .... not used
Type of local MP2 treatment                 .... semi-local MP2
Strategy for PNO selection                  .... occupation number selection
Pair density normalization                  .... MP2 norm
Spin component scaling                      .... not used

   .... Finished loop over pairs

 PNO Occupation Number Statistics: 
  | Av. % of trace(Dij) retained        ...  98.743205558799
  | sigma^2 in % of trace(Dij) retained ...   2.18e+00
  | Av. % of trace(Di) retained         ...  99.998939750793
  | sigma^2 in % of trace(Di) retained  ...   2.10e-07
 Distributions of % trace(Dij) recovered:
  |       >= 99.9  ...    66 ( 28.6 % of all pairs)
  |   [90.0, 99.0) ...    88 ( 38.1 % of all pairs)
  |   [99.0, 99.9) ...    77 ( 33.3 % of all pairs)
 Distributions of % trace(Di) recovered :
  |       >= 99.9  ...    21 (100.0 % of all I-pairs )

Making pair pair interaction lists          ... done

                       ===========================
                        208 OF  231 PAIRS ARE KEPT
                       ===========================

Total time spent in the initial guess                 ...     3.176 sec
SL-MP2 correlation energy (all non-screened pairs)    ...      -1.290065733669 Eh

Initial PNO correlation energy                        ...      -1.284139032819 Eh
sum of pair energies estimated for screened out pairs ...       0.000000000000 Eh
sum of MP2 pair energies for pairs that were not kept ...      -0.001717369687 Eh
sum of PNO error estimates for the kept pairs         ...      -0.004209331163 Eh
                                                          --------------------
sum of all corrections                                         -0.005926700850
Initial total correlation energy                               -1.290065733669
Thresholds for map construction and integral transformation for fine MP2 and CCSD(T) calculation:
   TCutMKN   ...     1.0e-03
   TCutDO    ...     1.0e-02
   TCutPairs ...     1.0e-04
   TCutCMO   ...     1.0e-03
   TCutCPAO  ...     1.0e-03

Time for aux screen maps:            0.002
Time for maps after fine MP2:            0.008
-----------------------------
LOCAL RI TRANSFORMATION (IJV)
-----------------------------

Orbital window:       8 to 28
Basis functions:    388 (148 shells)
Aux. functions:     908 (276 shells)
Use SHARK:           on

Processing maps (0.0 sec)
Average map sizes:
   Aux shells -> MOs(i)           21.0
   Aux shells -> MOs(j)           21.0
   MOs        -> AO shells       148.0

Calculating integrals (0.5 sec, 3.065 MB)
Sorting integrals (0.0 sec, 3.055 MB)
Total time for the integral transformation: 0.5 sec
--------------------------------
LOCAL RI TRANSFORMATION (VABPAO)
--------------------------------

Number of PAOs:     388
Basis functions:    388 (148 shells)
Aux. functions:     908 (276 shells)
Use SHARK:           on

Processing maps (0.0 sec)
Average map sizes:
   Aux shells -> PAOs            388.0
   PAOs       -> AO shells       148.0

Calculating integrals (1.0 sec, 1042.902 MB)
Finished


-------------------------------------
Pair Pair Term precalculation with     
RI-(ij|mn) and (im|jn) transformation  
ON THE FLY                             
-------------------------------------

   IBatch   1 (of   1)              ... done (   67.366 sec)
Total EXT                           ...          67.366 sec

---------------------
RI-PNO TRANSFORMATION
---------------------

Total Number of PNOs                   ...  8057
Average number of PNOs per pair        ...    38
Maximal number of PNOs per pair        ...    80
   #pairs with  1 -  5 PNOs   :    0
   #pairs with  6 - 10 PNOs   :    2
   #pairs with 11 - 15 PNOs   :   10
   #pairs with 16 - 20 PNOs   :   26
   #pairs with 21 - 25 PNOs   :   10
   #pairs with 26 - 30 PNOs   :   22
   #pairs with 31 - 35 PNOs   :   23
   #pairs with 36 - 40 PNOs   :   22
   #pairs with 41 - 45 PNOs   :   19
   #pairs with 46 - 50 PNOs   :   16
   #pairs with 51 - 55 PNOs   :   29
   #pairs with 56 - 60 PNOs   :   11
   #pairs with 61 - 65 PNOs   :    8
   #pairs with 66 - 70 PNOs   :    4
   #pairs with 71 - 75 PNOs   :    3
   #pairs with 76 - 80 PNOs   :    3

Generation of (ij|ab)[P] integrals            ... on
Generation of (ia|bc)[P],(ja|bc)[P] integrals ... on
Storage of 3 and 4 external integrals         ... on
Generation of ALL (ka|bc)[P] integrals        ... on
Keep RI integrals in memory                   ... off

Ibatch:  1 (of  1)
Starting 2-4 index PNO integral generation ... done

Timings:
Total PNO integral transformation time     ...         20.998 sec
Size of the 3-external file                ...       143 MB
Size of the 4-external file                ...       999 MB
Size of the IKJL file                      ...         0 MB
Size of the all 3-external file            ...      1511 MB
Size of the 1-external file                ...         3 MB

Making pair/pair overlap matrices          ... done (    2.344 sec)
Size of the pair overlap file              ... 377 MB
Redoing the guess amplitudes               ... done (    0.866 sec)

-------------------------
FINAL STARTUP INFORMATION
-------------------------

E(0)                                       ...   -308.679393001
E(SL-MP2)                                  ...     -1.290065734
E(SL-MP2) including corrections            ...     -1.290065734
Initial E(tot)                             ...   -309.969458735
<T|T>                                      ...      0.408928195
Number of pairs included                   ... 208
Total number of pairs                      ... 231

------------------------------------------------
                  RHF COUPLED CLUSTER ITERATIONS
------------------------------------------------

Number of PNO amplitudes to be optimized   ...       365961
Number of non-PNO amplitudes               ...     26807248
Untruncated number of regular amplitudes   ...     29771511

Iter       E(tot)           E(Corr)          Delta-E          Residual     Time
  0   -309.969525798     -1.284206096      0.005859638      0.012776480   10.16
                           *** Turning on DIIS ***
  1   -310.010055974     -1.324736272     -0.040530176      0.008975704    9.81
  2   -310.044617229     -1.359297527     -0.034561255      0.003621167    9.77
  3   -310.050871293     -1.365551591     -0.006254065      0.002591776    9.75
  4   -310.052654934     -1.367335232     -0.001783640      0.001055466    9.26
  5   -310.053264144     -1.367944442     -0.000609210      0.000483526    8.74
  6   -310.053434871     -1.368115169     -0.000170727      0.000134641    8.67
  7   -310.053450309     -1.368130607     -0.000015438      0.000043363    8.82
  8   -310.053456724     -1.368137022     -0.000006415      0.000019016    9.43
               --- The Coupled-Cluster iterations have converged ---

----------------------
COUPLED CLUSTER ENERGY
----------------------

E(0)                                       ...   -308.679393001
E(CORR)(strong-pairs)                      ...     -1.368137022
E(CORR)(weak-pairs)                        ...     -0.005926701
E(CORR)(corrected)                         ...     -1.374063723
E(TOT)                                     ...   -310.053456724
Singles Norm <S|S>**1/2                    ...      0.059073172  
T1 diagnostic                              ...      0.009115188  

------------------
LARGEST AMPLITUDES
------------------
  16-> 29  16-> 29       0.068061
  12-> 29  12-> 29       0.051374
   9-> 29   9-> 29       0.051367
  22-> 33  22-> 33       0.035817
  19-> 33  19-> 33       0.035816
  13-> 31  13-> 31       0.034471
  14-> 31  14-> 31       0.034470
  12-> 29  11-> 29       0.032633
   9-> 29   8-> 29       0.032630
  11-> 29  11-> 29       0.031074
   8-> 29   8-> 29       0.031066
  27-> 36  27-> 36       0.030845
  23-> 29  23-> 29       0.030152
  24-> 37  24-> 37       0.030076
  10-> 33  10-> 33       0.030012
  26-> 29  26-> 29       0.029634


-------------------------------------------
DLPNO BASED TRIPLES CORRECTION
-------------------------------------------

Singles multiplier          ...  1.000000
TCutTNO                     ... 1.000e-09
TCutMP2Pairs                ... 1.000e-05
TCutDOStrong                ... 2.000e-02
TCutMKNStrong               ... 1.000e-02
TCutDOWeak                  ... 4.000e-02
TCutMKNWeak                 ... 1.000e-01

Fragment selection                          .... not used
Fock matrix occ-virt block is zero --> Setting DT_in_Triples to false.
Number of Triples that are to be computed   ...      1630

 . . . . . . . . .
10% done  
20% done  
30% done  
40% done  
50% done  
60% done  
70% done  
80% done  
90% done               (    140.596 sec)
Triples timings:
Total time for T0               ...   149.926 sec
Total time for Iterative (T)    ...     0.000 sec
Total time of overall (T)       ...   163.831 sec

Triples List generation         ...     0.000 sec
TNO generation                  ...     9.212 sec
Pair density generation         ...     0.035 sec
Look up tables                  ...     0.000 sec
Generating 3-index integrals    ...    89.908 sec
  Make 4-ind.int. from 3-ind.int...    17.613 sec
  Projecting amplitudes (D + S) ...    12.538 sec
  Downprojecting integrals      ...     0.002 sec
  Energy contr. (sum over a,b,c)...     4.298 sec
Fitting ET(->0)                 ...     0.000 sec

Everything after 3-index        ...    50.688 sec

Timing details:
 TNO integrals                  ...   105.837 sec
   Reading 3-index integrals    ...     0.423 sec
   Sorting integrals            ...    20.163 sec
       Sorting integrals 1      ...     0.001 sec
       Sorting integrals 2      ...    13.576 sec
       Sorting integrals 3      ...     0.754 sec
       Sorting integrals 4      ...     0.038 sec
       Sorting integrals 5      ...     0.121 sec
       Sorting integrals 6      ...     5.673 sec
   Calculating local VM**-1/2   ...     0.547 sec
   Orthogonal. integrals        ...     1.593 sec
   Multipl. 3-index integrals   ...    83.111 sec
   All concerning IRIab (w/TNO) ...     9.161 sec

 Calculate W0/W1                ...    16.230 sec
 W 3-ext contribution           ...     8.761 sec
 W 3-int contribution           ...     2.311 sec
 Sorting W                      ...     4.633 sec

 V exchange contribution        ...     1.120 sec

 Timings for Triples without generation
     of 3-index integrals       ...    50.685 sec
       0 weak pairs             ...    46.672 sec
       1 weak pair              ...     4.014 sec
       2 weak pairs             ...     0.000 sec
       3 weak pairs             ...     0.000 sec
  Extra time for extrapolation  ...     0.000 sec

Number of Triples   (0, 1, 2, 3 weak pairs; overall):   1341     289       0       0  (  1630)
Number of Atoms     (0, 1, 2, 3 weak pairs; overall):   15.0    12.3     0.0     0.0  (    18)
Number of PAOs      (0, 1, 2, 3 weak pairs; overall):  341.6   297.7     0.0     0.0  (   388)
Number of AuxFcns   (0, 1, 2, 3 weak pairs; overall):  438.5   339.5     0.0     0.0  (   908)
Number of TNOs      (0, 1, 2, 3 weak pairs         ):  101.3    73.9     0.0     0.0
Aver. Number of NTNO, Atoms, PAOs, AuxFcns / Triples:   1630    96.5    14.5   333.8   421.0

Triples Correction (T)                     ...     -0.068879514
Final correlation energy                   ...     -1.442943237
E(CCSD)                                    ...   -310.053456724
E(CCSD(T))                                 ...   -310.122336238



--------------------------------------------------------------------------------
                                    TIMINGS
--------------------------------------------------------------------------------


Total execution time                   ...      361.331 sec

Localization of occupied MO's          ...        0.373 sec (  0.1%)
Fock Matrix Formation                  ...       11.114 sec (  3.1%)
Global overlap, Fock, MKN matrices     ...        0.308 sec (  0.1%)
Differential overlap integrals         ...        0.476 sec (  0.1%)
Organizing maps                        ...        0.025 sec (  0.0%)
RI 3-index integral generations        ...        2.688 sec (  0.7%)
RI-PNO integral transformation         ...       91.675 sec ( 25.4%)
Initial Guess                          ...        5.337 sec (  1.5%)
DIIS Solver                            ...        0.195 sec (  0.1%)
State Vector Update                    ...        0.014 sec (  0.0%)
Sigma-vector construction              ...       84.210 sec ( 23.3%)
  <D|H|D>(0-ext)                       ...        1.871 sec (  2.2% of sigma)
  <D|H|D>(2-ext Fock)                  ...        0.011 sec (  0.0% of sigma)
  <D|H|D>(2-ext)                       ...       10.025 sec ( 11.9% of sigma)
  <D|H|D>(4-ext)                       ...       10.495 sec ( 12.5% of sigma)
  <D|H|D>(4-ext-corr)                  ...       49.587 sec ( 58.9% of sigma)
  CCSD doubles correction              ...        0.161 sec (  0.2% of sigma)
  <S|H|S>                              ...        0.862 sec (  1.0% of sigma)
  <S|H|D>(1-ext)                       ...        0.229 sec (  0.3% of sigma)
  <D|H|S>(1-ext)                       ...        0.008 sec (  0.0% of sigma)
  <S|H|D>(3-ext)                       ...        0.228 sec (  0.3% of sigma)
  Fock-dressing                        ...        7.037 sec (  8.4% of sigma)
  Singles amplitudes                   ...        0.727 sec (  0.9% of sigma)
  (ik|jl)-dressing                     ...        1.331 sec (  1.6% of sigma)
  (ij|ab),(ia|jb)-dressing             ...        1.421 sec (  1.7% of sigma)
  Pair energies                        ...        0.006 sec (  0.0% of sigma)
Total Time for computing (T)           ...      163.884 sec ( 45.4% of ALL)


Maximum memory used throughout the entire MDCI-calculation: 8480.6 MB

-------------------------   --------------------
FINAL SINGLE POINT ENERGY      -310.122336237865
-------------------------   --------------------


                            ***************************************
                            *     ORCA property calculations      *
                            ***************************************


  WARNING: The energy has been calculated at the MDCI level but the densities
           used in the property calculations are still SCF densities
           MDCI response densities have not been calculated 
           use %mdci Density linearized end
           or  %mdci Density unrelaxed end
           or  %mdci Density orbopt end

                                    ---------------------
                                    Active property flags
                                    ---------------------



Timings for individual modules:

Sum of individual times         ...      379.008 sec (=   6.317 min)
GTO integral calculation        ...        0.478 sec (=   0.008 min)   0.1 %
SCF iterations                  ...       16.302 sec (=   0.272 min)   4.3 %
MDCI module                     ...      362.228 sec (=   6.037 min)  95.6 %
                             ****ORCA TERMINATED NORMALLY****
TOTAL RUN TIME: 0 days 0 hours 6 minutes 19 seconds 281 msec
