nohup: ignoring input

                                 *****************
                                 * O   R   C   A *
                                 *****************

                                            #,                                       
                                            ###                                      
                                            ####                                     
                                            #####                                    
                                            ######                                   
                                           ########,                                 
                                     ,,################,,,,,                         
                               ,,#################################,,                 
                          ,,##########################################,,             
                       ,#########################################, ''#####,          
                    ,#############################################,,   '####,        
                  ,##################################################,,,,####,       
                ,###########''''           ''''###############################       
              ,#####''   ,,,,##########,,,,          '''####'''          '####       
            ,##' ,,,,###########################,,,                        '##       
           ' ,,###''''                  '''############,,,                           
         ,,##''                                '''############,,,,        ,,,,,,###''
      ,#''                                            '''#######################'''  
     '                                                          ''''####''''         
             ,#######,   #######,   ,#######,      ##                                
            ,#'     '#,  ##    ##  ,#'     '#,    #''#        ######   ,####,        
            ##       ##  ##   ,#'  ##            #'  '#       #        #'  '#        
            ##       ##  #######   ##           ,######,      #####,   #    #        
            '#,     ,#'  ##    ##  '#,     ,#' ,#      #,         ##   #,  ,#        
             '#######'   ##     ##  '#######'  #'      '#     #####' # '####'        



                  #######################################################
                  #                        -***-                        #
                  #          Department of theory and spectroscopy      #
                  #    Directorship and core code : Frank Neese         #
                  #        Max Planck Institute fuer Kohlenforschung    #
                  #                Kaiser Wilhelm Platz 1               #
                  #                 D-45470 Muelheim/Ruhr               #
                  #                      Germany                        #
                  #                                                     #
                  #                  All rights reserved                #
                  #                        -***-                        #
                  #######################################################


                         Program Version 5.0.2 -  RELEASE  -


 With contributions from (in alphabetic order):
   Daniel Aravena         : Magnetic Suceptibility
   Michael Atanasov       : Ab Initio Ligand Field Theory (pilot matlab implementation)
   Alexander A. Auer      : GIAO ZORA, VPT2 properties, NMR spectrum
   Ute Becker             : Parallelization
   Giovanni Bistoni       : ED, misc. LED, open-shell LED, HFLD
   Martin Brehm           : Molecular dynamics
   Dmytro Bykov           : SCF Hessian
   Vijay G. Chilkuri      : MRCI spin determinant printing, contributions to CSF-ICE
   Dipayan Datta          : RHF DLPNO-CCSD density
   Achintya Kumar Dutta   : EOM-CC, STEOM-CC
   Dmitry Ganyushin       : Spin-Orbit,Spin-Spin,Magnetic field MRCI
   Miquel Garcia          : C-PCM and meta-GGA Hessian, CC/C-PCM, Gaussian charge scheme
   Yang Guo               : DLPNO-NEVPT2, F12-NEVPT2, CIM, IAO-localization
   Andreas Hansen         : Spin unrestricted coupled pair/coupled cluster methods
   Benjamin Helmich-Paris : MC-RPA, TRAH-SCF, COSX integrals
   Lee Huntington         : MR-EOM, pCC
   Robert Izsak           : Overlap fitted RIJCOSX, COSX-SCS-MP3, EOM
   Marcus Kettner         : VPT2
   Christian Kollmar      : KDIIS, OOCD, Brueckner-CCSD(T), CCSD density, CASPT2, CASPT2-K
   Simone Kossmann        : Meta GGA functionals, TD-DFT gradient, OOMP2, MP2 Hessian
   Martin Krupicka        : Initial AUTO-CI
   Lucas Lang             : DCDCAS
   Marvin Lechner         : AUTO-CI (C++ implementation), FIC-MRCC
   Dagmar Lenk            : GEPOL surface, SMD
   Dimitrios Liakos       : Extrapolation schemes; Compound Job, initial MDCI parallelization
   Dimitrios Manganas     : Further ROCIS development; embedding schemes
   Dimitrios Pantazis     : SARC Basis sets
   Anastasios Papadopoulos: AUTO-CI, single reference methods and gradients
   Taras Petrenko         : DFT Hessian,TD-DFT gradient, ASA, ECA, R-Raman, ABS, FL, XAS/XES, NRVS
   Peter Pinski           : DLPNO-MP2, DLPNO-MP2 Gradient
   Christoph Reimann      : Effective Core Potentials
   Marius Retegan         : Local ZFS, SOC
   Christoph Riplinger    : Optimizer, TS searches, QM/MM, DLPNO-CCSD(T), (RO)-DLPNO pert. Triples
   Tobias Risthaus        : Range-separated hybrids, TD-DFT gradient, RPA, STAB
   Michael Roemelt        : Original ROCIS implementation
   Masaaki Saitow         : Open-shell DLPNO-CCSD energy and density
   Barbara Sandhoefer     : DKH picture change effects
   Avijit Sen             : IP-ROCIS
   Kantharuban Sivalingam : CASSCF convergence, NEVPT2, FIC-MRCI
   Bernardo de Souza      : ESD, SOC TD-DFT
   Georgi Stoychev        : AutoAux, RI-MP2 NMR, DLPNO-MP2 response
   Willem Van den Heuvel  : Paramagnetic NMR
   Boris Wezisla          : Elementary symmetry handling
   Frank Wennmohs         : Technical directorship


 We gratefully acknowledge several colleagues who have allowed us to
 interface, adapt or use parts of their codes:
   Stefan Grimme, W. Hujo, H. Kruse, P. Pracht,  : VdW corrections, initial TS optimization,
                  C. Bannwarth, S. Ehlert          DFT functionals, gCP, sTDA/sTD-DF
   Ed Valeev, F. Pavosevic, A. Kumar             : LibInt (2-el integral package), F12 methods
   Garnet Chan, S. Sharma, J. Yang, R. Olivares  : DMRG
   Ulf Ekstrom                                   : XCFun DFT Library
   Mihaly Kallay                                 : mrcc  (arbitrary order and MRCC methods)
   Jiri Pittner, Ondrej Demel                    : Mk-CCSD
   Frank Weinhold                                : gennbo (NPA and NBO analysis)
   Christopher J. Cramer and Donald G. Truhlar   : smd solvation model
   Lars Goerigk                                  : TD-DFT with DH, B97 family of functionals
   V. Asgeirsson, H. Jonsson                     : NEB implementation
   FAccTs GmbH                                   : IRC, NEB, NEB-TS, DLPNO-Multilevel, CI-OPT
                                                   MM, QMMM, 2- and 3-layer-ONIOM, Crystal-QMMM,
                                                   LR-CPCM, SF, NACMEs, symmetry and pop. for TD-DFT,
                                                   nearIR, NL-DFT gradient (VV10), updates on ESD,
                                                   ML-optimized integration grids
   S Lehtola, MJT Oliveira, MAL Marques          : LibXC Library
   Liviu Ungur et al                             : ANISO software


 Your calculation uses the libint2 library for the computation of 2-el integrals
 For citations please refer to: http://libint.valeyev.net

 Your ORCA version has been built with support for libXC version: 5.1.0
 For citations please refer to: https://tddft.org/programs/libxc/

 This ORCA versions uses:
   CBLAS   interface :  Fast vector & matrix operations
   LAPACKE interface :  Fast linear algebra routines
   SCALAPACK package :  Parallel linear algebra routines
   Shared memory     :  Shared parallel matrices
   BLAS/LAPACK       :  OpenBLAS 0.3.15  USE64BITINT DYNAMIC_ARCH NO_AFFINITY SkylakeX SINGLE_THREADED
        Core in use  :  SkylakeX
   Copyright (c) 2011-2014, The OpenBLAS Project


================================================================================

----- Orbital basis set information -----
Your calculation utilizes the basis: def2-TZVPP
   F. Weigend and R. Ahlrichs, Phys. Chem. Chem. Phys. 7, 3297 (2005).

----- AuxC basis set information -----
Your calculation utilizes the auxiliary basis: def2-TZVPP/C
  H-La, Hf-Rn : A. Hellweg, C. Hattig, S. Hofener and W. Klopper, Theor. Chem. Acc. 117, 587 (2007).
        Ce-Lu : J. Chmela and M. E. Harding, Mol. Phys. (2018).

================================================================================
                                        WARNINGS
                       Please study these warnings very carefully!
================================================================================


WARNING: Post HF methods need fully converged wavefunctions
  ===> : Setting SCFConvForced true
         You can overwrite this default with %scf ConvForced false 


WARNING: MDCI localization with Augmented Hessian Foster-Boys
  ===> : Switching off randomization!

INFO   : the flag for use of the SHARK integral package has been found!

================================================================================
                                       INPUT FILE
================================================================================
NAME = TS3_crest_conf_1_DLPNO.inp
|  1> # TS3_crest_conf_1_DLPNO
|  2> %maxcore 16000
|  3> %pal nprocs 8 end
|  4> ! DLPNO-CCSD(T) def2-tzvpp def2-tzvpp/C
|  5> %scf maxiter 500
|  6> end
|  7> % mdci
|  8> Density None
|  9> end
| 10> % elprop
| 11> Dipole False
| 12> end
| 13> * xyz 0 1
| 14>  C  -1.38155600  -1.15077000  -0.08287000
| 15>  C  -1.21459600  -0.69799900   1.22956300
| 16>  C  -1.21510500   0.69914900   1.22884200
| 17>  C  -1.38261300   1.15040600  -0.08400700
| 18>  C  -1.97357700  -0.00081500  -0.85673100
| 19>  C   0.58027400   0.69898000  -0.97682300
| 20>  C   0.58031800  -0.69971700  -0.97613100
| 21>  C   1.68808200  -1.22375900  -0.08161000
| 22>  C   2.09635000   0.00049700   0.76516500
| 23>  C   1.68763800   1.22406100  -0.08242000
| 24>  H  -1.54913800  -2.18645600  -0.34682400
| 25>  H  -0.98693900  -1.32270800   2.08198300
| 26>  H  -0.98797400   1.32492800   2.08062000
| 27>  H  -1.55079100   2.18568800  -0.34915600
| 28>  H  -1.78554300  -0.00118900  -1.92825300
| 29>  H  -3.06293400  -0.00128400  -0.70383200
| 30>  H   0.29595200   1.26657400  -1.85273600
| 31>  H   0.29605800  -1.26812000  -1.85153400
| 32>  H   1.39458100  -2.07832200   0.53218100
| 33>  H   2.52560000  -1.55861700  -0.70548300
| 34>  H   3.15766700   0.00076400   1.01648600
| 35>  H   1.54348000   0.00071000   1.70415100
| 36>  H   2.52510900   1.55901300  -0.70630500
| 37>  H   1.39358500   2.07881800   0.53083900
| 38> **                         ****END OF INPUT****
================================================================================

                       ****************************
                       * Single Point Calculation *
                       ****************************

---------------------------------
CARTESIAN COORDINATES (ANGSTROEM)
---------------------------------
  C     -1.381556   -1.150770   -0.082870
  C     -1.214596   -0.697999    1.229563
  C     -1.215105    0.699149    1.228842
  C     -1.382613    1.150406   -0.084007
  C     -1.973577   -0.000815   -0.856731
  C      0.580274    0.698980   -0.976823
  C      0.580318   -0.699717   -0.976131
  C      1.688082   -1.223759   -0.081610
  C      2.096350    0.000497    0.765165
  C      1.687638    1.224061   -0.082420
  H     -1.549138   -2.186456   -0.346824
  H     -0.986939   -1.322708    2.081983
  H     -0.987974    1.324928    2.080620
  H     -1.550791    2.185688   -0.349156
  H     -1.785543   -0.001189   -1.928253
  H     -3.062934   -0.001284   -0.703832
  H      0.295952    1.266574   -1.852736
  H      0.296058   -1.268120   -1.851534
  H      1.394581   -2.078322    0.532181
  H      2.525600   -1.558617   -0.705483
  H      3.157667    0.000764    1.016486
  H      1.543480    0.000710    1.704151
  H      2.525109    1.559013   -0.706305
  H      1.393585    2.078818    0.530839

----------------------------
CARTESIAN COORDINATES (A.U.)
----------------------------
  NO LB      ZA    FRAG     MASS         X           Y           Z
   0 C     6.0000    0    12.011   -2.610762   -2.174640   -0.156602
   1 C     6.0000    0    12.011   -2.295254   -1.319027    2.323537
   2 C     6.0000    0    12.011   -2.296216    1.321200    2.322175
   3 C     6.0000    0    12.011   -2.612760    2.173952   -0.158750
   4 C     6.0000    0    12.011   -3.729520   -0.001540   -1.618987
   5 C     6.0000    0    12.011    1.096559    1.320881   -1.845928
   6 C     6.0000    0    12.011    1.096642   -1.322274   -1.844620
   7 C     6.0000    0    12.011    3.190013   -2.312569   -0.154221
   8 C     6.0000    0    12.011    3.961527    0.000939    1.445952
   9 C     6.0000    0    12.011    3.189174    2.313140   -0.155751
  10 H     1.0000    0     1.008   -2.927447   -4.131803   -0.655402
  11 H     1.0000    0     1.008   -1.865044   -2.499556    3.934378
  12 H     1.0000    0     1.008   -1.867000    2.503751    3.931802
  13 H     1.0000    0     1.008   -2.930570    4.130352   -0.659809
  14 H     1.0000    0     1.008   -3.374187   -0.002247   -3.643870
  15 H     1.0000    0     1.008   -5.788106   -0.002426   -1.330050
  16 H     1.0000    0     1.008    0.559268    2.393478   -3.501164
  17 H     1.0000    0     1.008    0.559469   -2.396400   -3.498892
  18 H     1.0000    0     1.008    2.635376   -3.927459    1.005676
  19 H     1.0000    0     1.008    4.772692   -2.945359   -1.333170
  20 H     1.0000    0     1.008    5.967126    0.001444    1.920880
  21 H     1.0000    0     1.008    2.916754    0.001342    3.220379
  22 H     1.0000    0     1.008    4.771764    2.946108   -1.334723
  23 H     1.0000    0     1.008    2.633494    3.928397    1.003140

--------------------------------
INTERNAL COORDINATES (ANGSTROEM)
--------------------------------
 C      0   0   0     0.000000000000     0.00000000     0.00000000
 C      1   0   0     1.398341016895     0.00000000     0.00000000
 C      2   1   0     1.397148278754   108.86041103     0.00000000
 C      3   2   1     1.398307658176   108.85925991     0.00000000
 C      4   3   2     1.507199595380   106.36944871    19.75735438
 C      4   3   2     2.203141216105   101.98321165   287.09604175
 C      6   4   3     1.398697171874   101.81361092    67.54685667
 C      7   6   4     1.517210900601   110.22531845   243.37711266
 C      8   7   6     1.543539249253   104.04060726    15.60729037
 C      6   4   3     1.517208558988   109.90541024   310.71115405
 H      1   2   3     1.081850697387   123.88062432   188.52932158
 H      2   1   3     1.081068407054   125.31648487   187.68678242
 H      3   2   1     1.081070584784   125.33583393   187.68401027
 H      4   3   2     1.081848719281   123.88708700   171.48427059
 H      5   4   3     1.087895363312   115.94222546   205.20376373
 H      5   4   3     1.100034998357   108.50290194    83.59844926
 H      6   4   3     1.081769629861    89.22371679   189.80110546
 H      7   6   4     1.081765284347   121.67036607    96.47863932
 H      8   7   6     1.092318703333   113.91186776   138.50238677
 H      8   7   6     1.096715004282   109.12590666   257.50554848
 H      9   8   7     1.090667727046   112.58098829   212.78147220
 H      9   8   7     1.089660493211   109.79698663    93.47755735
 H     10   6   4     1.096714644459   109.12860825   213.96982496
 H     10   6   4     1.092320143977   113.90989341   332.97223345

---------------------------
INTERNAL COORDINATES (A.U.)
---------------------------
 C      0   0   0     0.000000000000     0.00000000     0.00000000
 C      1   0   0     2.642481563760     0.00000000     0.00000000
 C      2   1   0     2.640227615325   108.86041103     0.00000000
 C      3   2   1     2.642418524918   108.85925991     0.00000000
 C      4   3   2     2.848194464425   106.36944871    19.75735438
 C      4   3   2     4.163333532793   101.98321165   287.09604175
 C      6   4   3     2.643154599132   101.81361092    67.54685667
 C      7   6   4     2.867113089535   110.22531845   243.37711266
 C      8   7   6     2.916866458047   104.04060726    15.60729037
 C      6   4   3     2.867108664528   109.90541024   310.71115405
 H      1   2   3     2.044401535853   123.88062432   188.52932158
 H      2   1   3     2.042923221366   125.31648487   187.68678242
 H      3   2   1     2.042927336681   125.33583393   187.68401027
 H      4   3   2     2.044397797774   123.88708700   171.48427059
 H      5   4   3     2.055824299023   115.94222546   205.20376373
 H      5   4   3     2.078764884624   108.50290194    83.59844926
 H      6   4   3     2.044248340430    89.22371679   189.80110546
 H      7   6   4     2.044240128599   121.67036607    96.47863932
 H      8   7   6     2.064183200259   113.91186776   138.50238677
 H      8   7   6     2.072491005055   109.12590666   257.50554848
 H      9   8   7     2.061063307223   112.58098829   212.78147220
 H      9   8   7     2.059159911122   109.79698663    93.47755735
 H     10   6   4     2.072490325088   109.12860825   213.96982496
 H     10   6   4     2.064185922683   113.90989341   332.97223345

---------------------
BASIS SET INFORMATION
---------------------
There are 2 groups of distinct atoms

 Group   1 Type C   : 11s6p2d1f contracted to 5s3p2d1f pattern {62111/411/11/1}
 Group   2 Type H   : 5s2p1d contracted to 3s2p1d pattern {311/11/1}

Atom   0C    basis set group =>   1
Atom   1C    basis set group =>   1
Atom   2C    basis set group =>   1
Atom   3C    basis set group =>   1
Atom   4C    basis set group =>   1
Atom   5C    basis set group =>   1
Atom   6C    basis set group =>   1
Atom   7C    basis set group =>   1
Atom   8C    basis set group =>   1
Atom   9C    basis set group =>   1
Atom  10H    basis set group =>   2
Atom  11H    basis set group =>   2
Atom  12H    basis set group =>   2
Atom  13H    basis set group =>   2
Atom  14H    basis set group =>   2
Atom  15H    basis set group =>   2
Atom  16H    basis set group =>   2
Atom  17H    basis set group =>   2
Atom  18H    basis set group =>   2
Atom  19H    basis set group =>   2
Atom  20H    basis set group =>   2
Atom  21H    basis set group =>   2
Atom  22H    basis set group =>   2
Atom  23H    basis set group =>   2
---------------------------------
AUXILIARY/C BASIS SET INFORMATION
---------------------------------
There are 2 groups of distinct atoms

 Group   1 Type C   : 8s6p5d3f1g contracted to 8s6p4d3f1g pattern {11111111/111111/2111/111/1}
 Group   2 Type H   : 4s3p2d1f contracted to 4s3p2d1f pattern {1111/111/11/1}

Atom   0C    basis set group =>   1
Atom   1C    basis set group =>   1
Atom   2C    basis set group =>   1
Atom   3C    basis set group =>   1
Atom   4C    basis set group =>   1
Atom   5C    basis set group =>   1
Atom   6C    basis set group =>   1
Atom   7C    basis set group =>   1
Atom   8C    basis set group =>   1
Atom   9C    basis set group =>   1
Atom  10H    basis set group =>   2
Atom  11H    basis set group =>   2
Atom  12H    basis set group =>   2
Atom  13H    basis set group =>   2
Atom  14H    basis set group =>   2
Atom  15H    basis set group =>   2
Atom  16H    basis set group =>   2
Atom  17H    basis set group =>   2
Atom  18H    basis set group =>   2
Atom  19H    basis set group =>   2
Atom  20H    basis set group =>   2
Atom  21H    basis set group =>   2
Atom  22H    basis set group =>   2
Atom  23H    basis set group =>   2


           ************************************************************
           *        Program running with 8 parallel MPI-processes     *
           *              working on a common directory               *
           ************************************************************
------------------------------------------------------------------------------
                           ORCA GTO INTEGRAL CALCULATION
------------------------------------------------------------------------------
------------------------------------------------------------------------------
                   ___                                                        
                  /   \      - P O W E R E D   B Y -                         
                 /     \                                                     
                 |  |  |   _    _      __       _____    __    __             
                 |  |  |  | |  | |    /  \     |  _  \  |  |  /  |          
                  \  \/   | |  | |   /    \    | | | |  |  | /  /          
                 / \  \   | |__| |  /  /\  \   | |_| |  |  |/  /          
                |  |  |   |  __  | /  /__\  \  |    /   |      \           
                |  |  |   | |  | | |   __   |  |    \   |  |\   \          
                \     /   | |  | | |  |  |  |  | |\  \  |  | \   \       
                 \___/    |_|  |_| |__|  |__|  |_| \__\ |__|  \__/        
                                                                              
                      - O R C A' S   B I G   F R I E N D -                    
                                      &                                       
                       - I N T E G R A L  F E E D E R -                       
                                                                              
 v1 FN, 2020, v2 2021                                                         
------------------------------------------------------------------------------


Reading SHARK input file TS3_crest_conf_1_DLPNO.SHARKINP.tmp ... ok
----------------------
SHARK INTEGRAL PACKAGE
----------------------

Number of atoms                             ...     24
Number of basis functions                   ...    506
Number of shells                            ...    194
Maximum angular momentum                    ...      3
Integral batch strategy                     ... SHARK/LIBINT Hybrid
RI-J (if used) integral strategy            ... SPLIT-RIJ (Revised 2003 algorithm where possible)
Printlevel                                  ...      1
Contraction scheme used                     ... SEGMENTED contraction
Coulomb Range Separation                    ... NOT USED
Exchange Range Separation                   ... NOT USED
Finite Nucleus Model                        ... NOT USED
Auxiliary Coulomb fitting basis             ... NOT available
Auxiliary J/K fitting basis                 ... NOT available
Auxiliary Correlation fitting basis         ... AVAILABLE
   # of basis functions in Aux-C            ...   1180
   # of shells in Aux-C                     ...    360
   Maximum angular momentum in Aux-C        ...      4
Auxiliary 'external' fitting basis          ... NOT available
Integral threshold                          ...     1.000000e-10
Primitive cut-off                           ...     1.000000e-11
Primitive pair pre-selection threshold      ...     1.000000e-11

Calculating pre-screening integrals         ... done (  0.1 sec) Dimension = 194
Organizing shell pair data                  ... done (  0.3 sec)
Shell pair information
Total number of shell pairs                 ...     18915
Shell pairs after pre-screening             ...     17064
Total number of primitive shell pairs       ...     49090
Primitive shell pairs kept                  ...     33924
          la=0 lb=0:   3793 shell pairs
          la=1 lb=0:   4848 shell pairs
          la=1 lb=1:   1593 shell pairs
          la=2 lb=0:   2735 shell pairs
          la=2 lb=1:   1785 shell pairs
          la=2 lb=2:    518 shell pairs
          la=3 lb=0:    858 shell pairs
          la=3 lb=1:    554 shell pairs
          la=3 lb=2:    325 shell pairs
          la=3 lb=3:     55 shell pairs

Calculating one electron integrals          ... done (  0.0 sec)
Calculating RI/C V-Matrix + Cholesky decomp.... done (  0.1 sec)
Calculating Nuclear repulsion               ... done (  0.0 sec) ENN=    543.086663466372 Eh

SHARK setup successfully completed in   1.0 seconds

Maximum memory used throughout the entire GTOINT-calculation: 28.9 MB


           ************************************************************
           *        Program running with 8 parallel MPI-processes     *
           *              working on a common directory               *
           ************************************************************
-------------------------------------------------------------------------------
                                 ORCA SCF
-------------------------------------------------------------------------------

------------
SCF SETTINGS
------------
Hamiltonian:
 Ab initio Hamiltonian  Method          .... Hartree-Fock(GTOs)


General Settings:
 Integral files         IntName         .... TS3_crest_conf_1_DLPNO
 Hartree-Fock type      HFTyp           .... RHF
 Total Charge           Charge          ....    0
 Multiplicity           Mult            ....    1
 Number of Electrons    NEL             ....   74
 Basis Dimension        Dim             ....  506
 Nuclear Repulsion      ENuc            ....    543.0866634664 Eh

Convergence Acceleration:
 DIIS                   CNVDIIS         .... on
   Start iteration      DIISMaxIt       ....    12
   Startup error        DIISStart       ....  0.200000
   # of expansion vecs  DIISMaxEq       ....     5
   Bias factor          DIISBfac        ....   1.050
   Max. coefficient     DIISMaxC        ....  10.000
 Trust-Rad. Augm. Hess. CNVTRAH         .... auto
   Auto Start mean grad. ratio tolernc. ....  1.125000
   Auto Start start iteration           ....    20
   Auto Start num. interpolation iter.  ....    10
   Max. Number of Micro iterations      ....    16
   Max. Number of Macro iterations      .... Maxiter - #DIIS iter
   Number of Davidson start vectors     ....     2
   Converg. threshold I  (grad. norm)   ....   5.000e-05
   Converg. threshold II (energy diff.) ....   1.000e-06
   Grad. Scal. Fac. for Micro threshold ....   0.100
   Minimum threshold for Micro iter.    ....   0.010
   NR start threshold (gradient norm)   ....   0.001
   Initial trust radius                 ....   0.400
   Minimum AH scaling param. (alpha)    ....   1.000
   Maximum AH scaling param. (alpha)    .... 1000.000
   Orbital update algorithm             .... Taylor
   White noise on init. David. guess    .... on
   Maximum white noise                  ....   0.010
   Quad. conv. algorithm                .... NR
 SOSCF                  CNVSOSCF        .... on
   Start iteration      SOSCFMaxIt      ....   150
   Startup grad/error   SOSCFStart      ....  0.003300
 Level Shifting         CNVShift        .... on
   Level shift para.    LevelShift      ....    0.2500
   Turn off err/grad.   ShiftErr        ....    0.0010
 Zerner damping         CNVZerner       .... off
 Static damping         CNVDamp         .... on
   Fraction old density DampFac         ....    0.7000
   Max. Damping (<1)    DampMax         ....    0.9800
   Min. Damping (>=0)   DampMin         ....    0.0000
   Turn off err/grad.   DampErr         ....    0.1000
 Fernandez-Rico         CNVRico         .... off

SCF Procedure:
 Maximum # iterations   MaxIter         ....   500
 SCF integral mode      SCFMode         .... Direct
   Integral package                     .... SHARK and LIBINT hybrid scheme
 Reset frequency        DirectResetFreq ....    20
 Integral Threshold     Thresh          ....  1.000e-10 Eh
 Primitive CutOff       TCut            ....  1.000e-11 Eh

Convergence Tolerance:
 Convergence Check Mode ConvCheckMode   .... Total+1el-Energy
 Convergence forced     ConvForced      .... 1
 Energy Change          TolE            ....  1.000e-06 Eh
 1-El. energy change                    ....  1.000e-03 Eh
 Orbital Gradient       TolG            ....  5.000e-05
 Orbital Rotation angle TolX            ....  5.000e-05
 DIIS Error             TolErr          ....  1.000e-06


Diagonalization of the overlap matrix:
Smallest eigenvalue                        ... 1.969e-05
Time for diagonalization                   ...    0.064 sec
Threshold for overlap eigenvalues          ... 1.000e-08
Number of eigenvalues below threshold      ... 0
Time for construction of square roots      ...    0.040 sec
Total time needed                          ...    0.106 sec

Time for model grid setup =    0.244 sec

------------------------------
INITIAL GUESS: MODEL POTENTIAL
------------------------------
Loading Hartree-Fock densities                     ... done
Calculating cut-offs                               ... done
Initializing the effective Hamiltonian             ... done
Setting up the integral package (SHARK)            ... done
Starting the Coulomb interaction                   ... done (   0.3 sec)
Reading the grid                                   ... done
Mapping shells                                     ... done
Starting the XC term evaluation                    ... done (   0.2 sec)
Transforming the Hamiltonian                       ... done (   0.0 sec)
Diagonalizing the Hamiltonian                      ... done (   0.0 sec)
Back transforming the eigenvectors                 ... done (   0.0 sec)
Now organizing SCF variables                       ... done
                      ------------------
                      INITIAL GUESS DONE (   0.8 sec)
                      ------------------
--------------
SCF ITERATIONS
--------------
ITER       Energy         Delta-E        Max-DP      RMS-DP      [F,P]     Damp
               ***  Starting incremental Fock matrix formation  ***
  0   -386.3252690737   0.000000000000 0.03838085  0.00077664  0.2237002 0.7000
  1   -386.5065753978  -0.181306324138 0.03507195  0.00065068  0.1646357 0.7000
                               ***Turning on DIIS***
  2   -386.6132910695  -0.106715671698 0.02167641  0.00041451  0.1208709 0.7000
  3   -387.9504052229  -1.337114153331 0.04961181  0.00080859  0.0892470 0.0000
  4   -386.7733927783   1.177012444536 0.01573387  0.00024137  0.0082321 0.0000
                      *** Initiating the SOSCF procedure ***
                           *** Shutting down DIIS ***
                      *** Re-Reading the Fockian *** 
                      *** Removing any level shift *** 
ITER      Energy       Delta-E        Grad      Rot      Max-DP    RMS-DP
  5   -386.84039108  -0.0669983061  0.001604  0.001604  0.007470  0.000125
               *** Restarting incremental Fock matrix formation ***
  6   -386.83428518   0.0061059044  0.000709  0.000928  0.004292  0.000081
  7   -386.83432100  -0.0000358242  0.000268  0.001032  0.002101  0.000042
  8   -386.83432747  -0.0000064611  0.000182  0.000334  0.000440  0.000008
  9   -386.83432821  -0.0000007469  0.000080  0.000160  0.000183  0.000004
 10   -386.83432833  -0.0000001146  0.000031  0.000165  0.000106  0.000002
                 **** Energy Check signals convergence ****
              ***Rediagonalizing the Fockian in SOSCF/NRSCF***

               *****************************************************
               *                     SUCCESS                       *
               *           SCF CONVERGED AFTER  11 CYCLES          *
               *****************************************************


----------------
TOTAL SCF ENERGY
----------------

Total Energy       :         -386.83432837 Eh          -10526.29722 eV

Components:
Nuclear Repulsion  :          543.08666347 Eh           14778.13942 eV
Electronic Energy  :         -929.92099184 Eh          -25304.43664 eV
One Electron Energy:        -1600.17919547 Eh          -43543.08960 eV
Two Electron Energy:          670.25820363 Eh           18238.65296 eV

Virial components:
Potential Energy   :         -773.26003792 Eh          -21041.47536 eV
Kinetic Energy     :          386.42570955 Eh           10515.17814 eV
Virial Ratio       :            2.00105743


---------------
SCF CONVERGENCE
---------------

  Last Energy change         ...   -4.2742e-08  Tolerance :   1.0000e-06
  Last MAX-Density change    ...    3.7955e-05  Tolerance :   1.0000e-05
  Last RMS-Density change    ...    8.7043e-07  Tolerance :   1.0000e-06
  Last Orbital Gradient      ...    1.1244e-05  Tolerance :   5.0000e-05
  Last Orbital Rotation      ...    6.0465e-05  Tolerance :   5.0000e-05

             **** THE GBW FILE WAS UPDATED (TS3_crest_conf_1_DLPNO.gbw) ****
             **** DENSITY TS3_crest_conf_1_DLPNO.scfp WAS UPDATED ****
             **** ENERGY FILE WAS UPDATED (TS3_crest_conf_1_DLPNO.en.tmp) ****
             **** THE GBW FILE WAS UPDATED (TS3_crest_conf_1_DLPNO.gbw) ****
             **** DENSITY TS3_crest_conf_1_DLPNO.scfp WAS UPDATED ****
----------------
ORBITAL ENERGIES
----------------

  NO   OCC          E(Eh)            E(eV) 
   0   2.0000     -11.234242      -305.6993 
   1   2.0000     -11.234226      -305.6988 
   2   2.0000     -11.222046      -305.3674 
   3   2.0000     -11.220330      -305.3207 
   4   2.0000     -11.219115      -305.2876 
   5   2.0000     -11.214455      -305.1608 
   6   2.0000     -11.213251      -305.1281 
   7   2.0000     -11.211534      -305.0813 
   8   2.0000     -11.211501      -305.0804 
   9   2.0000     -11.207643      -304.9755 
  10   2.0000      -1.158093       -31.5133 
  11   2.0000      -1.107742       -30.1432 
  12   2.0000      -0.967772       -26.3344 
  13   2.0000      -0.961913       -26.1750 
  14   2.0000      -0.939325       -25.5603 
  15   2.0000      -0.932632       -25.3782 
  16   2.0000      -0.775077       -21.0909 
  17   2.0000      -0.757655       -20.6168 
  18   2.0000      -0.737680       -20.0733 
  19   2.0000      -0.700509       -19.0618 
  20   2.0000      -0.695101       -18.9147 
  21   2.0000      -0.657925       -17.9031 
  22   2.0000      -0.632577       -17.2133 
  23   2.0000      -0.588226       -16.0065 
  24   2.0000      -0.544274       -14.8105 
  25   2.0000      -0.537912       -14.6373 
  26   2.0000      -0.532344       -14.4858 
  27   2.0000      -0.518133       -14.0991 
  28   2.0000      -0.510392       -13.8885 
  29   2.0000      -0.493485       -13.4284 
  30   2.0000      -0.479031       -13.0351 
  31   2.0000      -0.477565       -12.9952 
  32   2.0000      -0.467591       -12.7238 
  33   2.0000      -0.462267       -12.5789 
  34   2.0000      -0.422663       -11.5012 
  35   2.0000      -0.297320        -8.0905 
  36   2.0000      -0.288205        -7.8425 
  37   0.0000       0.128376         3.4933 
  38   0.0000       0.138766         3.7760 
  39   0.0000       0.138884         3.7792 
  40   0.0000       0.162149         4.4123 
  41   0.0000       0.166964         4.5433 
  42   0.0000       0.168168         4.5761 
  43   0.0000       0.184696         5.0258 
  44   0.0000       0.185452         5.0464 
  45   0.0000       0.195301         5.3144 
  46   0.0000       0.205011         5.5786 
  47   0.0000       0.218600         5.9484 
  48   0.0000       0.228672         6.2225 
  49   0.0000       0.234389         6.3781 
  50   0.0000       0.250398         6.8137 
  51   0.0000       0.256775         6.9872 
  52   0.0000       0.265133         7.2146 
  53   0.0000       0.271628         7.3914 
  54   0.0000       0.278455         7.5771 
  55   0.0000       0.302384         8.2283 
  56   0.0000       0.306058         8.3283 
  57   0.0000       0.316205         8.6044 
  58   0.0000       0.316334         8.6079 
  59   0.0000       0.340234         9.2582 
  60   0.0000       0.341344         9.2884 
  61   0.0000       0.345961         9.4141 
  62   0.0000       0.348465         9.4822 
  63   0.0000       0.364489         9.9183 
  64   0.0000       0.375527        10.2186 
  65   0.0000       0.378588        10.3019 
  66   0.0000       0.381593        10.3837 
  67   0.0000       0.402512        10.9529 
  68   0.0000       0.422219        11.4892 
  69   0.0000       0.438580        11.9344 
  70   0.0000       0.452078        12.3017 
  71   0.0000       0.462902        12.5962 
  72   0.0000       0.483021        13.1437 
  73   0.0000       0.494035        13.4434 
  74   0.0000       0.512497        13.9457 
  75   0.0000       0.519893        14.1470 
  76   0.0000       0.525020        14.2865 
  77   0.0000       0.542382        14.7590 
  78   0.0000       0.543299        14.7839 
  79   0.0000       0.546429        14.8691 
  80   0.0000       0.553321        15.0566 
  81   0.0000       0.562737        15.3129 
  82   0.0000       0.565195        15.3797 
  83   0.0000       0.573630        15.6093 
  84   0.0000       0.577228        15.7072 
  85   0.0000       0.583688        15.8830 
  86   0.0000       0.591336        16.0911 
  87   0.0000       0.596178        16.2228 
  88   0.0000       0.597547        16.2601 
  89   0.0000       0.610676        16.6173 
  90   0.0000       0.614080        16.7100 
  91   0.0000       0.619591        16.8599 
  92   0.0000       0.626939        17.0599 
  93   0.0000       0.636784        17.3278 
  94   0.0000       0.646336        17.5877 
  95   0.0000       0.646400        17.5894 
  96   0.0000       0.657546        17.8927 
  97   0.0000       0.661633        18.0039 
  98   0.0000       0.672793        18.3076 
  99   0.0000       0.686212        18.6728 
 100   0.0000       0.693668        18.8757 
 101   0.0000       0.720239        19.5987 
 102   0.0000       0.721688        19.6381 
 103   0.0000       0.728060        19.8115 
 104   0.0000       0.737166        20.0593 
 105   0.0000       0.741046        20.1649 
 106   0.0000       0.741340        20.1729 
 107   0.0000       0.766825        20.8664 
 108   0.0000       0.779816        21.2199 
 109   0.0000       0.803741        21.8709 
 110   0.0000       0.819314        22.2947 
 111   0.0000       0.822912        22.3926 
 112   0.0000       0.845219        22.9996 
 113   0.0000       0.881373        23.9834 
 114   0.0000       0.889799        24.2127 
 115   0.0000       0.911904        24.8142 
 116   0.0000       0.917262        24.9600 
 117   0.0000       0.928087        25.2545 
 118   0.0000       0.971164        26.4267 
 119   0.0000       0.974794        26.5255 
 120   0.0000       0.992842        27.0166 
 121   0.0000       1.001302        27.2468 
 122   0.0000       1.014976        27.6189 
 123   0.0000       1.028377        27.9836 
 124   0.0000       1.039039        28.2737 
 125   0.0000       1.057078        28.7645 
 126   0.0000       1.067038        29.0356 
 127   0.0000       1.095394        29.8072 
 128   0.0000       1.098630        29.8952 
 129   0.0000       1.114188        30.3186 
 130   0.0000       1.127715        30.6867 
 131   0.0000       1.130134        30.7525 
 132   0.0000       1.138127        30.9700 
 133   0.0000       1.138772        30.9876 
 134   0.0000       1.171670        31.8827 
 135   0.0000       1.172971        31.9182 
 136   0.0000       1.185690        32.2643 
 137   0.0000       1.187178        32.3047 
 138   0.0000       1.202213        32.7139 
 139   0.0000       1.220464        33.2105 
 140   0.0000       1.222833        33.2750 
 141   0.0000       1.226701        33.3802 
 142   0.0000       1.235459        33.6185 
 143   0.0000       1.249570        34.0025 
 144   0.0000       1.260859        34.3097 
 145   0.0000       1.288409        35.0594 
 146   0.0000       1.295760        35.2594 
 147   0.0000       1.305332        35.5199 
 148   0.0000       1.314305        35.7641 
 149   0.0000       1.324861        36.0513 
 150   0.0000       1.326442        36.0943 
 151   0.0000       1.345098        36.6020 
 152   0.0000       1.349826        36.7306 
 153   0.0000       1.354181        36.8491 
 154   0.0000       1.357794        36.9474 
 155   0.0000       1.371641        37.3242 
 156   0.0000       1.372042        37.3352 
 157   0.0000       1.392266        37.8855 
 158   0.0000       1.409078        38.3430 
 159   0.0000       1.415355        38.5138 
 160   0.0000       1.438838        39.1528 
 161   0.0000       1.442630        39.2560 
 162   0.0000       1.449173        39.4340 
 163   0.0000       1.453661        39.5561 
 164   0.0000       1.469348        39.9830 
 165   0.0000       1.473373        40.0925 
 166   0.0000       1.483993        40.3815 
 167   0.0000       1.491297        40.5803 
 168   0.0000       1.496571        40.7238 
 169   0.0000       1.508093        41.0373 
 170   0.0000       1.524526        41.4845 
 171   0.0000       1.532243        41.6945 
 172   0.0000       1.534534        41.7568 
 173   0.0000       1.557036        42.3691 
 174   0.0000       1.564033        42.5595 
 175   0.0000       1.582741        43.0686 
 176   0.0000       1.589116        43.2420 
 177   0.0000       1.591439        43.3053 
 178   0.0000       1.614456        43.9316 
 179   0.0000       1.623764        44.1849 
 180   0.0000       1.633468        44.4489 
 181   0.0000       1.635957        44.5166 
 182   0.0000       1.665976        45.3335 
 183   0.0000       1.666069        45.3360 
 184   0.0000       1.676453        45.6186 
 185   0.0000       1.683601        45.8131 
 186   0.0000       1.698252        46.2118 
 187   0.0000       1.706852        46.4458 
 188   0.0000       1.722068        46.8599 
 189   0.0000       1.728941        47.0469 
 190   0.0000       1.750499        47.6335 
 191   0.0000       1.761495        47.9327 
 192   0.0000       1.765448        48.0403 
 193   0.0000       1.785608        48.5889 
 194   0.0000       1.791234        48.7420 
 195   0.0000       1.809017        49.2258 
 196   0.0000       1.810432        49.2644 
 197   0.0000       1.835621        49.9498 
 198   0.0000       1.838240        50.0211 
 199   0.0000       1.865863        50.7727 
 200   0.0000       1.867223        50.8097 
 201   0.0000       1.897361        51.6298 
 202   0.0000       1.919161        52.2230 
 203   0.0000       1.925184        52.3869 
 204   0.0000       1.932917        52.5973 
 205   0.0000       1.943932        52.8971 
 206   0.0000       1.967980        53.5515 
 207   0.0000       1.983160        53.9645 
 208   0.0000       1.997080        54.3433 
 209   0.0000       2.013561        54.7918 
 210   0.0000       2.037304        55.4379 
 211   0.0000       2.051588        55.8265 
 212   0.0000       2.057253        55.9807 
 213   0.0000       2.079415        56.5838 
 214   0.0000       2.100233        57.1503 
 215   0.0000       2.114152        57.5290 
 216   0.0000       2.116080        57.5815 
 217   0.0000       2.141382        58.2700 
 218   0.0000       2.171345        59.0853 
 219   0.0000       2.207486        60.0687 
 220   0.0000       2.216797        60.3221 
 221   0.0000       2.255049        61.3630 
 222   0.0000       2.278977        62.0141 
 223   0.0000       2.321799        63.1794 
 224   0.0000       2.357829        64.1598 
 225   0.0000       2.366667        64.4003 
 226   0.0000       2.369073        64.4657 
 227   0.0000       2.402681        65.3803 
 228   0.0000       2.437302        66.3223 
 229   0.0000       2.455322        66.8127 
 230   0.0000       2.498999        68.0012 
 231   0.0000       2.515175        68.4414 
 232   0.0000       2.533509        68.9403 
 233   0.0000       2.568189        69.8840 
 234   0.0000       2.588657        70.4409 
 235   0.0000       2.625880        71.4538 
 236   0.0000       2.630276        71.5734 
 237   0.0000       2.682041        72.9820 
 238   0.0000       2.683370        73.0182 
 239   0.0000       2.722676        74.0878 
 240   0.0000       2.728946        74.2584 
 241   0.0000       2.761964        75.1569 
 242   0.0000       2.782841        75.7250 
 243   0.0000       2.802373        76.2564 
 244   0.0000       2.819720        76.7285 
 245   0.0000       2.830740        77.0283 
 246   0.0000       2.839019        77.2536 
 247   0.0000       2.846730        77.4635 
 248   0.0000       2.857164        77.7474 
 249   0.0000       2.876287        78.2677 
 250   0.0000       2.881951        78.4219 
 251   0.0000       2.910016        79.1856 
 252   0.0000       2.912636        79.2569 
 253   0.0000       2.938317        79.9557 
 254   0.0000       2.956282        80.4445 
 255   0.0000       2.988918        81.3326 
 256   0.0000       3.006684        81.8160 
 257   0.0000       3.007967        81.8509 
 258   0.0000       3.029887        82.4474 
 259   0.0000       3.038100        82.6709 
 260   0.0000       3.043693        82.8231 
 261   0.0000       3.057100        83.1879 
 262   0.0000       3.066994        83.4572 
 263   0.0000       3.077630        83.7466 
 264   0.0000       3.081220        83.8443 
 265   0.0000       3.092795        84.1592 
 266   0.0000       3.109390        84.6108 
 267   0.0000       3.114056        84.7378 
 268   0.0000       3.115327        84.7723 
 269   0.0000       3.130136        85.1753 
 270   0.0000       3.135246        85.3144 
 271   0.0000       3.149756        85.7092 
 272   0.0000       3.159838        85.9836 
 273   0.0000       3.177774        86.4716 
 274   0.0000       3.219911        87.6182 
 275   0.0000       3.220720        87.6403 
 276   0.0000       3.222075        87.6771 
 277   0.0000       3.254572        88.5614 
 278   0.0000       3.259280        88.6895 
 279   0.0000       3.274295        89.0981 
 280   0.0000       3.290064        89.5272 
 281   0.0000       3.295030        89.6623 
 282   0.0000       3.311692        90.1157 
 283   0.0000       3.338447        90.8438 
 284   0.0000       3.351272        91.1927 
 285   0.0000       3.359745        91.4233 
 286   0.0000       3.376776        91.8868 
 287   0.0000       3.389644        92.2369 
 288   0.0000       3.391945        92.2995 
 289   0.0000       3.399437        92.5034 
 290   0.0000       3.430283        93.3428 
 291   0.0000       3.444659        93.7339 
 292   0.0000       3.446718        93.7900 
 293   0.0000       3.459815        94.1464 
 294   0.0000       3.463514        94.2470 
 295   0.0000       3.482174        94.7548 
 296   0.0000       3.489383        94.9509 
 297   0.0000       3.499098        95.2153 
 298   0.0000       3.510113        95.5150 
 299   0.0000       3.514833        95.6435 
 300   0.0000       3.525379        95.9304 
 301   0.0000       3.535518        96.2063 
 302   0.0000       3.540064        96.3300 
 303   0.0000       3.550260        96.6075 
 304   0.0000       3.554515        96.7233 
 305   0.0000       3.569954        97.1434 
 306   0.0000       3.579566        97.4049 
 307   0.0000       3.581616        97.4607 
 308   0.0000       3.586062        97.5817 
 309   0.0000       3.602973        98.0419 
 310   0.0000       3.629795        98.7717 
 311   0.0000       3.644106        99.1612 
 312   0.0000       3.655151        99.4617 
 313   0.0000       3.662950        99.6739 
 314   0.0000       3.667493        99.7976 
 315   0.0000       3.677358       100.0660 
 316   0.0000       3.701961       100.7355 
 317   0.0000       3.704005       100.7911 
 318   0.0000       3.704447       100.8031 
 319   0.0000       3.712046       101.0099 
 320   0.0000       3.715708       101.1096 
 321   0.0000       3.727162       101.4212 
 322   0.0000       3.756369       102.2160 
 323   0.0000       3.756986       102.2328 
 324   0.0000       3.785786       103.0165 
 325   0.0000       3.791921       103.1834 
 326   0.0000       3.803623       103.5018 
 327   0.0000       3.806166       103.5710 
 328   0.0000       3.812405       103.7408 
 329   0.0000       3.817053       103.8673 
 330   0.0000       3.847338       104.6914 
 331   0.0000       3.853882       104.8694 
 332   0.0000       3.873465       105.4024 
 333   0.0000       3.890389       105.8629 
 334   0.0000       3.891666       105.8976 
 335   0.0000       3.897442       106.0548 
 336   0.0000       3.910063       106.3982 
 337   0.0000       3.919032       106.6423 
 338   0.0000       3.952183       107.5444 
 339   0.0000       3.952764       107.5602 
 340   0.0000       3.958188       107.7078 
 341   0.0000       3.964429       107.8776 
 342   0.0000       3.972522       108.0978 
 343   0.0000       3.991381       108.6110 
 344   0.0000       3.998215       108.7970 
 345   0.0000       4.000421       108.8570 
 346   0.0000       4.003648       108.9448 
 347   0.0000       4.011472       109.1577 
 348   0.0000       4.039737       109.9268 
 349   0.0000       4.063653       110.5776 
 350   0.0000       4.073789       110.8534 
 351   0.0000       4.082880       111.1008 
 352   0.0000       4.091786       111.3431 
 353   0.0000       4.108799       111.8061 
 354   0.0000       4.117834       112.0520 
 355   0.0000       4.119593       112.0998 
 356   0.0000       4.126171       112.2788 
 357   0.0000       4.136149       112.5503 
 358   0.0000       4.149395       112.9108 
 359   0.0000       4.166163       113.3671 
 360   0.0000       4.187930       113.9594 
 361   0.0000       4.202251       114.3491 
 362   0.0000       4.205122       114.4272 
 363   0.0000       4.220144       114.8360 
 364   0.0000       4.224224       114.9470 
 365   0.0000       4.255584       115.8003 
 366   0.0000       4.261557       115.9629 
 367   0.0000       4.271486       116.2331 
 368   0.0000       4.277938       116.4086 
 369   0.0000       4.290070       116.7387 
 370   0.0000       4.293178       116.8233 
 371   0.0000       4.302718       117.0829 
 372   0.0000       4.326923       117.7416 
 373   0.0000       4.330006       117.8254 
 374   0.0000       4.334901       117.9587 
 375   0.0000       4.340731       118.1173 
 376   0.0000       4.345777       118.2546 
 377   0.0000       4.367423       118.8436 
 378   0.0000       4.374648       119.0402 
 379   0.0000       4.385710       119.3412 
 380   0.0000       4.415417       120.1496 
 381   0.0000       4.433969       120.6544 
 382   0.0000       4.436862       120.7331 
 383   0.0000       4.458337       121.3175 
 384   0.0000       4.464350       121.4811 
 385   0.0000       4.468137       121.5842 
 386   0.0000       4.488800       122.1464 
 387   0.0000       4.493222       122.2668 
 388   0.0000       4.498190       122.4020 
 389   0.0000       4.515167       122.8639 
 390   0.0000       4.519861       122.9917 
 391   0.0000       4.552015       123.8666 
 392   0.0000       4.558457       124.0419 
 393   0.0000       4.559262       124.0638 
 394   0.0000       4.575709       124.5114 
 395   0.0000       4.594936       125.0346 
 396   0.0000       4.597913       125.1156 
 397   0.0000       4.600232       125.1787 
 398   0.0000       4.616186       125.6128 
 399   0.0000       4.624475       125.8384 
 400   0.0000       4.632929       126.0684 
 401   0.0000       4.635921       126.1498 
 402   0.0000       4.649244       126.5123 
 403   0.0000       4.661529       126.8467 
 404   0.0000       4.670024       127.0778 
 405   0.0000       4.674307       127.1944 
 406   0.0000       4.694582       127.7461 
 407   0.0000       4.707944       128.1097 
 408   0.0000       4.719505       128.4243 
 409   0.0000       4.737707       128.9196 
 410   0.0000       4.740138       128.9857 
 411   0.0000       4.754768       129.3838 
 412   0.0000       4.770060       129.7999 
 413   0.0000       4.782859       130.1482 
 414   0.0000       4.809299       130.8677 
 415   0.0000       4.812685       130.9598 
 416   0.0000       4.829658       131.4217 
 417   0.0000       4.837614       131.6382 
 418   0.0000       4.855421       132.1227 
 419   0.0000       4.867276       132.4453 
 420   0.0000       4.873677       132.6195 
 421   0.0000       4.906081       133.5013 
 422   0.0000       4.910579       133.6236 
 423   0.0000       4.941947       134.4772 
 424   0.0000       4.948077       134.6440 
 425   0.0000       4.994346       135.9031 
 426   0.0000       4.996069       135.9499 
 427   0.0000       5.023515       136.6968 
 428   0.0000       5.023600       136.6991 
 429   0.0000       5.035193       137.0146 
 430   0.0000       5.061069       137.7187 
 431   0.0000       5.099871       138.7745 
 432   0.0000       5.103667       138.8778 
 433   0.0000       5.137346       139.7943 
 434   0.0000       5.151916       140.1908 
 435   0.0000       5.179484       140.9409 
 436   0.0000       5.185174       141.0958 
 437   0.0000       5.191016       141.2547 
 438   0.0000       5.204754       141.6286 
 439   0.0000       5.207684       141.7083 
 440   0.0000       5.217763       141.9825 
 441   0.0000       5.242784       142.6634 
 442   0.0000       5.245612       142.7404 
 443   0.0000       5.282775       143.7516 
 444   0.0000       5.283951       143.7836 
 445   0.0000       5.290452       143.9605 
 446   0.0000       5.296795       144.1331 
 447   0.0000       5.304759       144.3498 
 448   0.0000       5.323215       144.8520 
 449   0.0000       5.352547       145.6502 
 450   0.0000       5.371156       146.1566 
 451   0.0000       5.384954       146.5321 
 452   0.0000       5.404200       147.0558 
 453   0.0000       5.425855       147.6450 
 454   0.0000       5.431932       147.8104 
 455   0.0000       5.455587       148.4541 
 456   0.0000       5.490047       149.3918 
 457   0.0000       5.494376       149.5096 
 458   0.0000       5.495414       149.5378 
 459   0.0000       5.539826       150.7463 
 460   0.0000       5.559709       151.2874 
 461   0.0000       5.573253       151.6559 
 462   0.0000       5.577518       151.7720 
 463   0.0000       5.613882       152.7615 
 464   0.0000       5.630998       153.2273 
 465   0.0000       5.632865       153.2781 
 466   0.0000       5.644925       153.6062 
 467   0.0000       5.650825       153.7668 
 468   0.0000       5.662445       154.0830 
 469   0.0000       5.684496       154.6830 
 470   0.0000       5.699492       155.0911 
 471   0.0000       5.741509       156.2344 
 472   0.0000       5.758616       156.6999 
 473   0.0000       5.807511       158.0304 
 474   0.0000       5.829800       158.6369 
 475   0.0000       5.864189       159.5727 
 476   0.0000       5.873953       159.8384 
 477   0.0000       5.917024       161.0104 
 478   0.0000       5.920897       161.1158 
 479   0.0000       5.955022       162.0444 
 480   0.0000       5.971669       162.4974 
 481   0.0000       5.980446       162.7362 
 482   0.0000       6.000659       163.2862 
 483   0.0000       6.007884       163.4828 
 484   0.0000       6.016709       163.7230 
 485   0.0000       6.040856       164.3800 
 486   0.0000       6.074493       165.2954 
 487   0.0000       6.126441       166.7089 
 488   0.0000       6.147519       167.2825 
 489   0.0000       6.157454       167.5528 
 490   0.0000       6.166536       167.8000 
 491   0.0000       6.211639       169.0273 
 492   0.0000       6.307835       171.6449 
 493   0.0000       6.316770       171.8880 
 494   0.0000       6.351644       172.8370 
 495   0.0000       6.611494       179.9079 
 496   0.0000      24.080195       655.2554 
 497   0.0000      24.123631       656.4374 
 498   0.0000      24.365342       663.0147 
 499   0.0000      24.366063       663.0343 
 500   0.0000      24.453312       665.4085 
 501   0.0000      24.532708       667.5689 
 502   0.0000      24.585943       669.0175 
 503   0.0000      24.636169       670.3842 
 504   0.0000      24.670814       671.3270 
 505   0.0000      24.896345       677.4640 

                    ********************************
                    * MULLIKEN POPULATION ANALYSIS *
                    ********************************

-----------------------
MULLIKEN ATOMIC CHARGES
-----------------------
   0 C :   -0.007110
   1 C :   -0.212214
   2 C :   -0.211915
   3 C :   -0.007524
   4 C :   -0.102922
   5 C :   -0.119328
   6 C :   -0.119182
   7 C :   -0.095006
   8 C :   -0.083482
   9 C :   -0.094965
  10 H :    0.109710
  11 H :    0.094049
  12 H :    0.094063
  13 H :    0.109698
  14 H :    0.055130
  15 H :    0.079044
  16 H :    0.105425
  17 H :    0.105414
  18 H :    0.045533
  19 H :    0.054614
  20 H :    0.060071
  21 H :    0.040722
  22 H :    0.054627
  23 H :    0.045546
Sum of atomic charges:    0.0000000

--------------------------------
MULLIKEN REDUCED ORBITAL CHARGES
--------------------------------
  0 C s       :     3.061949  s :     3.061949
      pz      :     0.940993  p :     2.816700
      px      :     0.908455
      py      :     0.967252
      dz2     :     0.029217  d :     0.120226
      dxz     :     0.025962
      dyz     :     0.031450
      dx2y2   :     0.021455
      dxy     :     0.012141
      f0      :     0.001459  f :     0.008235
      f+1     :     0.001130
      f-1     :     0.001743
      f+2     :     0.001090
      f-2     :     0.001150
      f+3     :     0.000610
      f-3     :     0.001053
  1 C s       :     3.174658  s :     3.174658
      pz      :     0.983730  p :     2.910625
      px      :     0.993764
      py      :     0.933131
      dz2     :     0.029513  d :     0.117917
      dxz     :     0.014130
      dyz     :     0.038886
      dx2y2   :     0.014855
      dxy     :     0.020533
      f0      :     0.001774  f :     0.009014
      f+1     :     0.001232
      f-1     :     0.001615
      f+2     :     0.001453
      f-2     :     0.000435
      f+3     :     0.001601
      f-3     :     0.000904
  2 C s       :     3.174480  s :     3.174480
      pz      :     0.983623  p :     2.910490
      px      :     0.993705
      py      :     0.933163
      dz2     :     0.029527  d :     0.117930
      dxz     :     0.014138
      dyz     :     0.038885
      dx2y2   :     0.014854
      dxy     :     0.020526
      f0      :     0.001774  f :     0.009014
      f+1     :     0.001232
      f-1     :     0.001616
      f+2     :     0.001452
      f-2     :     0.000433
      f+3     :     0.001602
      f-3     :     0.000904
  3 C s       :     3.062221  s :     3.062221
      pz      :     0.941032  p :     2.816882
      px      :     0.908585
      py      :     0.967265
      dz2     :     0.029211  d :     0.120185
      dxz     :     0.025939
      dyz     :     0.031466
      dx2y2   :     0.021428
      dxy     :     0.012141
      f0      :     0.001459  f :     0.008235
      f+1     :     0.001131
      f-1     :     0.001744
      f+2     :     0.001089
      f-2     :     0.001148
      f+3     :     0.000611
      f-3     :     0.001054
  4 C s       :     3.066624  s :     3.066624
      pz      :     0.993004  p :     2.899652
      px      :     1.025946
      py      :     0.880701
      dz2     :     0.035302  d :     0.129763
      dxz     :     0.013386
      dyz     :     0.023573
      dx2y2   :     0.032470
      dxy     :     0.025032
      f0      :     0.001164  f :     0.006882
      f+1     :     0.000514
      f-1     :     0.001367
      f+2     :     0.000723
      f-2     :     0.001115
      f+3     :     0.001043
      f-3     :     0.000956
  5 C s       :     3.136226  s :     3.136226
      pz      :     0.976232  p :     2.847592
      px      :     0.919909
      py      :     0.951452
      dz2     :     0.017887  d :     0.127502
      dxz     :     0.016239
      dyz     :     0.036063
      dx2y2   :     0.028344
      dxy     :     0.028970
      f0      :     0.000693  f :     0.008007
      f+1     :     0.001057
      f-1     :     0.000980
      f+2     :     0.001637
      f-2     :     0.000896
      f+3     :     0.001619
      f-3     :     0.001124
  6 C s       :     3.136062  s :     3.136062
      pz      :     0.976219  p :     2.847567
      px      :     0.919839
      py      :     0.951510
      dz2     :     0.017867  d :     0.127544
      dxz     :     0.016262
      dyz     :     0.036078
      dx2y2   :     0.028364
      dxy     :     0.028974
      f0      :     0.000693  f :     0.008008
      f+1     :     0.001057
      f-1     :     0.000980
      f+2     :     0.001638
      f-2     :     0.000896
      f+3     :     0.001620
      f-3     :     0.001124
  7 C s       :     3.087865  s :     3.087865
      pz      :     0.964228  p :     2.879147
      px      :     0.946781
      py      :     0.968138
      dz2     :     0.013590  d :     0.121463
      dxz     :     0.029336
      dyz     :     0.033839
      dx2y2   :     0.024973
      dxy     :     0.019725
      f0      :     0.000662  f :     0.006530
      f+1     :     0.000657
      f-1     :     0.000796
      f+2     :     0.001544
      f-2     :     0.001326
      f+3     :     0.000708
      f-3     :     0.000837
  8 C s       :     3.075968  s :     3.075968
      pz      :     0.973793  p :     2.892637
      px      :     1.032441
      py      :     0.886403
      dz2     :     0.022113  d :     0.108546
      dxz     :     0.019038
      dyz     :     0.022792
      dx2y2   :     0.031033
      dxy     :     0.013570
      f0      :     0.000604  f :     0.006332
      f+1     :     0.000593
      f-1     :     0.001075
      f+2     :     0.001384
      f-2     :     0.001004
      f+3     :     0.001037
      f-3     :     0.000635
  9 C s       :     3.087848  s :     3.087848
      pz      :     0.964176  p :     2.879129
      px      :     0.946800
      py      :     0.968153
      dz2     :     0.013589  d :     0.121459
      dxz     :     0.029339
      dyz     :     0.033831
      dx2y2   :     0.024961
      dxy     :     0.019739
      f0      :     0.000663  f :     0.006530
      f+1     :     0.000657
      f-1     :     0.000796
      f+2     :     0.001543
      f-2     :     0.001327
      f+3     :     0.000708
      f-3     :     0.000836
 10 H s       :     0.849838  s :     0.849838
      pz      :     0.009002  p :     0.038304
      px      :     0.010024
      py      :     0.019278
      dz2     :     0.000288  d :     0.002148
      dxz     :     0.000061
      dyz     :     0.000696
      dx2y2   :     0.000551
      dxy     :     0.000551
 11 H s       :     0.867203  s :     0.867203
      pz      :     0.014732  p :     0.036715
      px      :     0.010359
      py      :     0.011624
      dz2     :     0.000643  d :     0.002032
      dxz     :     0.000370
      dyz     :     0.000559
      dx2y2   :     0.000263
      dxy     :     0.000197
 12 H s       :     0.867192  s :     0.867192
      pz      :     0.014723  p :     0.036714
      px      :     0.010357
      py      :     0.011634
      dz2     :     0.000643  d :     0.002032
      dxz     :     0.000369
      dyz     :     0.000559
      dx2y2   :     0.000264
      dxy     :     0.000197
 13 H s       :     0.849854  s :     0.849854
      pz      :     0.009005  p :     0.038300
      px      :     0.010027
      py      :     0.019268
      dz2     :     0.000289  d :     0.002147
      dxz     :     0.000062
      dyz     :     0.000696
      dx2y2   :     0.000550
      dxy     :     0.000550
 14 H s       :     0.899225  s :     0.899225
      pz      :     0.025659  p :     0.043370
      px      :     0.009398
      py      :     0.008312
      dz2     :     0.000815  d :     0.002275
      dxz     :     0.000654
      dyz     :     0.000738
      dx2y2   :     0.000045
      dxy     :     0.000024
 15 H s       :     0.876279  s :     0.876279
      pz      :     0.008142  p :     0.042371
      px      :     0.025688
      py      :     0.008541
      dz2     :     0.000274  d :     0.002306
      dxz     :     0.000682
      dyz     :     0.000011
      dx2y2   :     0.000609
      dxy     :     0.000730
 16 H s       :     0.849929  s :     0.849929
      pz      :     0.018967  p :     0.042419
      px      :     0.011287
      py      :     0.012165
      dz2     :     0.000650  d :     0.002226
      dxz     :     0.000500
      dyz     :     0.000542
      dx2y2   :     0.000278
      dxy     :     0.000257
 17 H s       :     0.849939  s :     0.849939
      pz      :     0.018961  p :     0.042421
      px      :     0.011285
      py      :     0.012174
      dz2     :     0.000649  d :     0.002227
      dxz     :     0.000500
      dyz     :     0.000542
      dx2y2   :     0.000278
      dxy     :     0.000258
 18 H s       :     0.910425  s :     0.910425
      pz      :     0.013161  p :     0.041791
      px      :     0.009171
      py      :     0.019459
      dz2     :     0.000428  d :     0.002251
      dxz     :     0.000290
      dyz     :     0.000603
      dx2y2   :     0.000466
      dxy     :     0.000464
 19 H s       :     0.903737  s :     0.903737
      pz      :     0.012673  p :     0.039442
      px      :     0.016259
      py      :     0.010510
      dz2     :     0.000428  d :     0.002207
      dxz     :     0.000551
      dyz     :     0.000336
      dx2y2   :     0.000427
      dxy     :     0.000465
 20 H s       :     0.896896  s :     0.896896
      pz      :     0.009846  p :     0.040820
      px      :     0.022201
      py      :     0.008773
      dz2     :     0.000198  d :     0.002214
      dxz     :     0.000678
      dyz     :     0.000083
      dx2y2   :     0.000554
      dxy     :     0.000701
 21 H s       :     0.915257  s :     0.915257
      pz      :     0.021471  p :     0.041727
      px      :     0.011784
      py      :     0.008472
      dz2     :     0.000764  d :     0.002294
      dxz     :     0.000547
      dyz     :     0.000608
      dx2y2   :     0.000214
      dxy     :     0.000161
 22 H s       :     0.903727  s :     0.903727
      pz      :     0.012673  p :     0.039440
      px      :     0.016256
      py      :     0.010511
      dz2     :     0.000428  d :     0.002207
      dxz     :     0.000551
      dyz     :     0.000336
      dx2y2   :     0.000427
      dxy     :     0.000465
 23 H s       :     0.910413  s :     0.910413
      pz      :     0.013151  p :     0.041790
      px      :     0.009175
      py      :     0.019464
      dz2     :     0.000427  d :     0.002251
      dxz     :     0.000290
      dyz     :     0.000603
      dx2y2   :     0.000466
      dxy     :     0.000465


                     *******************************
                     * LOEWDIN POPULATION ANALYSIS *
                     *******************************

----------------------
LOEWDIN ATOMIC CHARGES
----------------------
   0 C :    0.020385
   1 C :   -0.029545
   2 C :   -0.029541
   3 C :    0.020415
   4 C :   -0.028599
   5 C :   -0.003941
   6 C :   -0.004018
   7 C :   -0.014676
   8 C :    0.005456
   9 C :   -0.014686
  10 H :   -0.002577
  11 H :    0.002310
  12 H :    0.002324
  13 H :   -0.002593
  14 H :    0.016045
  15 H :    0.030398
  16 H :   -0.003620
  17 H :   -0.003589
  18 H :    0.005431
  19 H :    0.010451
  20 H :    0.002202
  21 H :    0.006089
  22 H :    0.010444
  23 H :    0.005435

-------------------------------
LOEWDIN REDUCED ORBITAL CHARGES
-------------------------------
  0 C s       :     2.730228  s :     2.730228
      pz      :     0.992710  p :     2.776832
      px      :     0.806690
      py      :     0.977432
      dz2     :     0.105772  d :     0.427080
      dxz     :     0.081613
      dyz     :     0.108332
      dx2y2   :     0.092476
      dxy     :     0.038888
      f0      :     0.008358  f :     0.045475
      f+1     :     0.005838
      f-1     :     0.010995
      f+2     :     0.006723
      f-2     :     0.005677
      f+3     :     0.002901
      f-3     :     0.004982
  1 C s       :     2.717673  s :     2.717673
      pz      :     0.987645  p :     2.850509
      px      :     0.859513
      py      :     1.003352
      dz2     :     0.097659  d :     0.414654
      dxz     :     0.044839
      dyz     :     0.154276
      dx2y2   :     0.051908
      dxy     :     0.065972
      f0      :     0.011742  f :     0.046709
      f+1     :     0.006004
      f-1     :     0.008669
      f+2     :     0.008116
      f-2     :     0.002439
      f+3     :     0.005732
      f-3     :     0.004007
  2 C s       :     2.717672  s :     2.717672
      pz      :     0.987678  p :     2.850488
      px      :     0.859477
      py      :     1.003333
      dz2     :     0.097623  d :     0.414670
      dxz     :     0.044868
      dyz     :     0.154347
      dx2y2   :     0.051893
      dxy     :     0.065938
      f0      :     0.011740  f :     0.046710
      f+1     :     0.006010
      f-1     :     0.008680
      f+2     :     0.008107
      f-2     :     0.002431
      f+3     :     0.005735
      f-3     :     0.004009
  3 C s       :     2.730247  s :     2.730247
      pz      :     0.992776  p :     2.776887
      px      :     0.806731
      py      :     0.977380
      dz2     :     0.105728  d :     0.426981
      dxz     :     0.081518
      dyz     :     0.108440
      dx2y2   :     0.092372
      dxy     :     0.038924
      f0      :     0.008352  f :     0.045469
      f+1     :     0.005841
      f-1     :     0.011013
      f+2     :     0.006709
      f-2     :     0.005665
      f+3     :     0.002904
      f-3     :     0.004985
  4 C s       :     2.678289  s :     2.678289
      pz      :     0.962362  p :     2.853646
      px      :     0.968108
      py      :     0.923176
      dz2     :     0.132936  d :     0.450482
      dxz     :     0.034010
      dyz     :     0.086169
      dx2y2   :     0.107188
      dxy     :     0.090180
      f0      :     0.005216  f :     0.046182
      f+1     :     0.004542
      f-1     :     0.009188
      f+2     :     0.005016
      f-2     :     0.009725
      f+3     :     0.005678
      f-3     :     0.006818
  5 C s       :     2.725712  s :     2.725712
      pz      :     0.938611  p :     2.808409
      px      :     0.853941
      py      :     1.015856
      dz2     :     0.062833  d :     0.425719
      dxz     :     0.058782
      dyz     :     0.116056
      dx2y2   :     0.094936
      dxy     :     0.093111
      f0      :     0.004539  f :     0.044102
      f+1     :     0.004931
      f-1     :     0.005182
      f+2     :     0.009159
      f-2     :     0.003926
      f+3     :     0.010069
      f-3     :     0.006297
  6 C s       :     2.725674  s :     2.725674
      pz      :     0.938550  p :     2.808401
      px      :     0.853966
      py      :     1.015885
      dz2     :     0.062780  d :     0.425832
      dxz     :     0.058853
      dyz     :     0.116083
      dx2y2   :     0.094998
      dxy     :     0.093118
      f0      :     0.004539  f :     0.044111
      f+1     :     0.004933
      f-1     :     0.005183
      f+2     :     0.009158
      f-2     :     0.003927
      f+3     :     0.010072
      f-3     :     0.006299
  7 C s       :     2.687215  s :     2.687215
      pz      :     0.959291  p :     2.864764
      px      :     0.959309
      py      :     0.946165
      dz2     :     0.047903  d :     0.420011
      dxz     :     0.099588
      dyz     :     0.112747
      dx2y2   :     0.088719
      dxy     :     0.071053
      f0      :     0.006173  f :     0.042685
      f+1     :     0.004832
      f-1     :     0.005808
      f+2     :     0.006787
      f-2     :     0.006198
      f+3     :     0.006194
      f-3     :     0.006692
  8 C s       :     2.688504  s :     2.688504
      pz      :     0.959770  p :     2.864573
      px      :     0.988615
      py      :     0.916188
      dz2     :     0.076301  d :     0.399892
      dxz     :     0.076349
      dyz     :     0.089435
      dx2y2   :     0.102980
      dxy     :     0.054827
      f0      :     0.003846  f :     0.041575
      f+1     :     0.005662
      f-1     :     0.007787
      f+2     :     0.005493
      f-2     :     0.007863
      f+3     :     0.006483
      f-3     :     0.004441
  9 C s       :     2.687218  s :     2.687218
      pz      :     0.959269  p :     2.864785
      px      :     0.959336
      py      :     0.946180
      dz2     :     0.047919  d :     0.419999
      dxz     :     0.099595
      dyz     :     0.112719
      dx2y2   :     0.088670
      dxy     :     0.071097
      f0      :     0.006177  f :     0.042684
      f+1     :     0.004831
      f-1     :     0.005806
      f+2     :     0.006788
      f-2     :     0.006199
      f+3     :     0.006195
      f-3     :     0.006689
 10 H s       :     0.821031  s :     0.821031
      pz      :     0.038376  p :     0.154112
      px      :     0.043082
      py      :     0.072655
      dz2     :     0.003689  d :     0.027433
      dxz     :     0.000618
      dyz     :     0.008237
      dx2y2   :     0.007460
      dxy     :     0.007429
 11 H s       :     0.821196  s :     0.821196
      pz      :     0.057287  p :     0.149655
      px      :     0.046035
      py      :     0.046333
      dz2     :     0.007700  d :     0.026839
      dxz     :     0.005513
      dyz     :     0.007498
      dx2y2   :     0.003160
      dxy     :     0.002968
 12 H s       :     0.821193  s :     0.821193
      pz      :     0.057250  p :     0.149645
      px      :     0.046019
      py      :     0.046376
      dz2     :     0.007694  d :     0.026838
      dxz     :     0.005503
      dyz     :     0.007498
      dx2y2   :     0.003167
      dxy     :     0.002976
 13 H s       :     0.821042  s :     0.821042
      pz      :     0.038390  p :     0.154119
      px      :     0.043100
      py      :     0.072630
      dz2     :     0.003696  d :     0.027432
      dxz     :     0.000623
      dyz     :     0.008232
      dx2y2   :     0.007457
      dxy     :     0.007425
 14 H s       :     0.813244  s :     0.813244
      pz      :     0.068161  p :     0.142325
      px      :     0.037455
      py      :     0.036709
      dz2     :     0.009971  d :     0.028385
      dxz     :     0.008821
      dyz     :     0.008749
      dx2y2   :     0.000673
      dxy     :     0.000172
 15 H s       :     0.794648  s :     0.794648
      pz      :     0.036339  p :     0.146952
      px      :     0.069195
      py      :     0.041418
      dz2     :     0.003103  d :     0.028001
      dxz     :     0.008697
      dyz     :     0.000096
      dx2y2   :     0.006863
      dxy     :     0.009242
 16 H s       :     0.813962  s :     0.813962
      pz      :     0.068378  p :     0.161087
      px      :     0.046000
      py      :     0.046708
      dz2     :     0.008801  d :     0.028571
      dxz     :     0.006277
      dyz     :     0.007326
      dx2y2   :     0.003242
      dxy     :     0.002924
 17 H s       :     0.813944  s :     0.813944
      pz      :     0.068357  p :     0.161073
      px      :     0.045984
      py      :     0.046732
      dz2     :     0.008796  d :     0.028573
      dxz     :     0.006272
      dyz     :     0.007326
      dx2y2   :     0.003249
      dxy     :     0.002930
 18 H s       :     0.820734  s :     0.820734
      pz      :     0.048893  p :     0.145680
      px      :     0.039762
      py      :     0.057026
      dz2     :     0.005301  d :     0.028154
      dxz     :     0.004054
      dyz     :     0.007181
      dx2y2   :     0.006027
      dxy     :     0.005591
 19 H s       :     0.815352  s :     0.815352
      pz      :     0.048514  p :     0.146189
      px      :     0.057051
      py      :     0.040624
      dz2     :     0.005350  d :     0.028007
      dxz     :     0.006967
      dyz     :     0.004270
      dx2y2   :     0.005544
      dxy     :     0.005877
 20 H s       :     0.822425  s :     0.822425
      pz      :     0.040338  p :     0.147127
      px      :     0.067830
      py      :     0.038959
      dz2     :     0.002648  d :     0.028246
      dxz     :     0.009594
      dyz     :     0.000823
      dx2y2   :     0.006990
      dxy     :     0.008191
 21 H s       :     0.815312  s :     0.815312
      pz      :     0.062130  p :     0.149697
      px      :     0.049159
      py      :     0.038407
      dz2     :     0.009348  d :     0.028902
      dxz     :     0.007287
      dyz     :     0.007535
      dx2y2   :     0.002881
      dxy     :     0.001852
 22 H s       :     0.815357  s :     0.815357
      pz      :     0.048514  p :     0.146191
      px      :     0.057050
      py      :     0.040627
      dz2     :     0.005350  d :     0.028007
      dxz     :     0.006966
      dyz     :     0.004270
      dx2y2   :     0.005543
      dxy     :     0.005878
 23 H s       :     0.820728  s :     0.820728
      pz      :     0.048874  p :     0.145683
      px      :     0.039774
      py      :     0.057035
      dz2     :     0.005296  d :     0.028155
      dxz     :     0.004051
      dyz     :     0.007180
      dx2y2   :     0.006032
      dxy     :     0.005596


                      *****************************
                      * MAYER POPULATION ANALYSIS *
                      *****************************

  NA   - Mulliken gross atomic population
  ZA   - Total nuclear charge
  QA   - Mulliken gross atomic charge
  VA   - Mayer's total valence
  BVA  - Mayer's bonded valence
  FA   - Mayer's free valence

  ATOM       NA         ZA         QA         VA         BVA        FA
  0 C      6.0071     6.0000    -0.0071     3.8645     3.8645     0.0000
  1 C      6.2122     6.0000    -0.2122     3.9874     3.9874     0.0000
  2 C      6.2119     6.0000    -0.2119     3.9871     3.9871     0.0000
  3 C      6.0075     6.0000    -0.0075     3.8648     3.8648    -0.0000
  4 C      6.1029     6.0000    -0.1029     3.9579     3.9579    -0.0000
  5 C      6.1193     6.0000    -0.1193     3.8193     3.8193     0.0000
  6 C      6.1192     6.0000    -0.1192     3.8193     3.8193    -0.0000
  7 C      6.0950     6.0000    -0.0950     3.9622     3.9622     0.0000
  8 C      6.0835     6.0000    -0.0835     3.9146     3.9146     0.0000
  9 C      6.0950     6.0000    -0.0950     3.9622     3.9622     0.0000
 10 H      0.8903     1.0000     0.1097     0.9938     0.9938     0.0000
 11 H      0.9060     1.0000     0.0940     1.0126     1.0126     0.0000
 12 H      0.9059     1.0000     0.0941     1.0126     1.0126     0.0000
 13 H      0.8903     1.0000     0.1097     0.9938     0.9938     0.0000
 14 H      0.9449     1.0000     0.0551     1.0173     1.0173    -0.0000
 15 H      0.9210     1.0000     0.0790     1.0261     1.0261     0.0000
 16 H      0.8946     1.0000     0.1054     1.0023     1.0023     0.0000
 17 H      0.8946     1.0000     0.1054     1.0023     1.0023    -0.0000
 18 H      0.9545     1.0000     0.0455     1.0158     1.0158     0.0000
 19 H      0.9454     1.0000     0.0546     1.0069     1.0069    -0.0000
 20 H      0.9399     1.0000     0.0601     1.0146     1.0146     0.0000
 21 H      0.9593     1.0000     0.0407     1.0209     1.0209     0.0000
 22 H      0.9454     1.0000     0.0546     1.0068     1.0068     0.0000
 23 H      0.9545     1.0000     0.0455     1.0158     1.0158    -0.0000

  Mayer bond orders larger than 0.100000
B(  0-C ,  1-C ) :   1.4837 B(  0-C ,  4-C ) :   0.9773 B(  0-C ,  6-C ) :   0.3712 
B(  0-C , 10-H ) :   0.9804 B(  1-C ,  2-C ) :   1.4465 B(  1-C , 11-H ) :   0.9891 
B(  2-C ,  3-C ) :   1.4839 B(  2-C , 12-H ) :   0.9891 B(  3-C ,  4-C ) :   0.9773 
B(  3-C ,  5-C ) :   0.3712 B(  3-C , 13-H ) :   0.9804 B(  4-C , 14-H ) :   1.0295 
B(  4-C , 15-H ) :   0.9743 B(  5-C ,  6-C ) :   1.4443 B(  5-C ,  9-C ) :   0.9575 
[...]
   .... Finished loop over pairs
Total time spent in the prescreening                  ...     0.000 sec
sum of pair energies estimated for screened out pairs ...       0.000000000000 Eh
Thresholds for map construction and integral transformation for crude MP2:
   TCutMKN                    ...     1.0e-02
   TCutDO                     ...     2.0e-02
   TCutPairs                  ...     1.0e-04
   TCutPNO_CrudeMP2           ...     3.3e-07
   TCutPNOSingles_CrudeMP2    ...     1.0e-08
--------------------------------
LOCAL RI TRANSFORMATION (IAVPAO)
--------------------------------

Orbital window:      10 to 36
Number of PAOs:     506
Basis functions:    506 (194 shells)
Aux. functions:    1180 (360 shells)
Use SHARK:           on

Processing maps (0.0 sec)
Average map sizes:
   Aux shells -> MOs              27.0
   Aux shells -> PAOs            506.0
   MOs        -> AO shells       190.7
   PAOs       -> AO shells       194.0

Calculating integrals (1.2 sec, 123.008 MB)
Sorting integrals (0.2 sec, 122.995 MB)
Total time for the integral transformation: 1.4 sec
--------------------------------
INITIAL GUESS AND PNO GENERATION
--------------------------------

PNO truncation parameters                   .... 
    PAOOverlapThresh   =        1.000e-08

    TCutPairs          =        1.000e-04
    TCutPNO            =        3.330e-07
    TCutPNOSingles     =        9.990e-09
    TCutMP2Pairs       =        1.000e-05
    TCutMKN            =        1.000e-02
    TCutDO             =        2.000e-02

Pair selection                          .... not used
Type of local MP2 treatment                 .... semi-local MP2
Strategy for PNO selection                  .... occupation number selection
Pair density normalization                  .... MP2 norm
Spin component scaling                      .... not used

   .... Finished loop over pairs
Making pair pair interaction lists          ... done

                       ===========================
                        293 OF  378 PAIRS ARE KEPT CCSD PAIRS
                         85 OF  378 PAIRS ARE KEPT MP2 PAIRS FOR (T)
                          0 OF  378 PAIRS ARE SKIPPED
                       ===========================

Total time spent in the initial guess                 ...     4.884 sec
SL-MP2 correlation energy (all non-screened pairs)    ...      -1.635843292431 Eh

Initial PNO correlation energy                        ...      -1.626036216329 Eh
sum of pair energies prescreened and skipped MP2 pairs...       0.000000000000 Eh
sum of pair energies of crude MP2 skipped pairs only  ...       0.000000000000 Eh
sum of MP2 pair energies for pairs that were not kept ...      -0.004205636103 Eh
sum of PNO error estimates for the kept pairs         ...      -0.005601439998 Eh
                                                          --------------------
sum of all corrections                                         -0.009807076102
Initial total correlation energy                               -1.635843292431
Thresholds for map construction and integral transformation for fine MP2 and CCSD(T) calculation:
   TCutMKN   ...     1.0e-03
   TCutDO    ...     1.0e-02
   TCutPairs ...     1.0e-04
   TCutCMO   ...     1.0e-03
   TCutCPAO  ...     1.0e-03

Thresholds for map construction and integral transformation for strong Triples:
   TCutMKN   ...     1.0e-02
   TCutDO    ...     2.0e-02
   TCutCMO   ...     1.0e-03
   TCutCPAO  ...     1.0e-03

Thresholds for map construction and integral transformation for weak Triples:
   TCutMKN   ...     1.0e-01
   TCutDO    ...     4.0e-02
   TCutCMO   ...     1.0e-03
   TCutCPAO  ...     1.0e-03

--------------------------------
LOCAL RI TRANSFORMATION (IAVPAO)
--------------------------------

Orbital window:      10 to 36
Number of PAOs:     506
Basis functions:    506 (194 shells)
Aux. functions:    1180 (360 shells)
Use SHARK:           on

Processing maps (0.0 sec)
Average map sizes:
   Aux shells -> MOs              27.0
   Aux shells -> PAOs            506.0
   MOs        -> AO shells       190.7
   PAOs       -> AO shells       194.0

Calculating integrals (1.2 sec, 123.008 MB)
Sorting integrals (0.2 sec, 122.995 MB)
Total time for the integral transformation: 1.4 sec
--------------------------------
INITIAL GUESS AND PNO GENERATION
--------------------------------

PNO truncation parameters                   .... 
    PAOOverlapThresh   =        1.000e-08

    TCutPairs          =        1.000e-04
    TCutPNO            =        3.330e-07
    TCutPNOSingles     =        9.990e-09
    TCutMP2Pairs       =        1.000e-05
    TCutMKN            =        1.000e-03
    TCutDO             =        1.000e-02

Pair selection                          .... not used
Type of local MP2 treatment                 .... semi-local MP2
Strategy for PNO selection                  .... occupation number selection
Pair density normalization                  .... MP2 norm
Spin component scaling                      .... not used

   .... Finished loop over pairs

 PNO Occupation Number Statistics: 
  | Av. % of trace(Dij) retained        ...  98.158272309359
  | sigma^2 in % of trace(Dij) retained ...   4.12e+00
  | Av. % of trace(Di) retained         ...  99.998903872863
  | sigma^2 in % of trace(Di) retained  ...   1.97e-07
 Distributions of % trace(Dij) recovered:
  |       >= 99.9  ...    84 ( 22.2 % of all pairs)
  |   [90.0, 99.0) ...   183 ( 48.4 % of all pairs)
  |   [99.0, 99.9) ...   111 ( 29.4 % of all pairs)
 Distributions of % trace(Di) recovered :
  |       >= 99.9  ...    27 (100.0 % of all I-pairs )

Making pair pair interaction lists          ... done

                       ===========================
                        293 OF  378 PAIRS ARE KEPT
                       ===========================

Total time spent in the initial guess                 ...     9.603 sec
SL-MP2 correlation energy (all non-screened pairs)    ...      -1.638108359364 Eh

Initial PNO correlation energy                        ...      -1.628226461911 Eh
sum of pair energies estimated for screened out pairs ...       0.000000000000 Eh
sum of MP2 pair energies for pairs that were not kept ...      -0.004221234447 Eh
sum of PNO error estimates for the kept pairs         ...      -0.005660663007 Eh
                                                          --------------------
sum of all corrections                                         -0.009881897453
Initial total correlation energy                               -1.638108359364
Thresholds for map construction and integral transformation for fine MP2 and CCSD(T) calculation:
   TCutMKN   ...     1.0e-03
   TCutDO    ...     1.0e-02
   TCutPairs ...     1.0e-04
   TCutCMO   ...     1.0e-03
   TCutCPAO  ...     1.0e-03

Time for aux screen maps:            0.004
Time for maps after fine MP2:            0.018
-----------------------------
LOCAL RI TRANSFORMATION (IJV)
-----------------------------

Orbital window:      10 to 36
Basis functions:    506 (194 shells)
Aux. functions:    1180 (360 shells)
Use SHARK:           on

Processing maps (0.0 sec)
Average map sizes:
   Aux shells -> MOs(i)           27.0
   Aux shells -> MOs(j)           27.0
   MOs        -> AO shells       190.7

Calculating integrals (1.2 sec, 6.576 MB)
Sorting integrals (0.0 sec, 6.563 MB)
Total time for the integral transformation: 1.2 sec
--------------------------------
LOCAL RI TRANSFORMATION (VABPAO)
--------------------------------

Number of PAOs:     506
Basis functions:    506 (194 shells)
Aux. functions:    1180 (360 shells)
Use SHARK:           on

Processing maps (0.0 sec)
Average map sizes:
   Aux shells -> PAOs            506.0
   PAOs       -> AO shells       194.0

Calculating integrals (3.0 sec, 2305.025 MB)
Finished


-------------------------------------
Pair Pair Term precalculation with     
RI-(ij|mn) and (im|jn) transformation  
ON THE FLY                             
-------------------------------------

   IBatch   1 (of   1)              ... done (  160.602 sec)
Total EXT                           ...         160.603 sec

---------------------
RI-PNO TRANSFORMATION
---------------------

Total Number of PNOs                   ... 10630
Average number of PNOs per pair        ...    36
Maximal number of PNOs per pair        ...    88
   #pairs with  1 -  5 PNOs   :    0
   #pairs with  6 - 10 PNOs   :    7
   #pairs with 11 - 15 PNOs   :   19
   #pairs with 16 - 20 PNOs   :   35
   #pairs with 21 - 25 PNOs   :   27
   #pairs with 26 - 30 PNOs   :   26
   #pairs with 31 - 35 PNOs   :   43
   #pairs with 36 - 40 PNOs   :   26
   #pairs with 41 - 45 PNOs   :   20
   #pairs with 46 - 50 PNOs   :   24
   #pairs with 51 - 55 PNOs   :   40
   #pairs with 56 - 60 PNOs   :    8
   #pairs with 61 - 65 PNOs   :    5
   #pairs with 66 - 70 PNOs   :    1
   #pairs with 71 - 75 PNOs   :    6
   #pairs with 76 - 80 PNOs   :    3
   #pairs with 81 - 85 PNOs   :    2
   #pairs with 86 - 90 PNOs   :    1

Generation of (ij|ab)[P] integrals            ... on
Generation of (ia|bc)[P],(ja|bc)[P] integrals ... on
Storage of 3 and 4 external integrals         ... on
Generation of ALL (ka|bc)[P] integrals        ... on
Keep RI integrals in memory                   ... off

Ibatch:  1 (of  1)
Starting 2-4 index PNO integral generation ... done

Timings:
Total PNO integral transformation time     ...         43.517 sec
Size of the 3-external file                ...       179 MB
Size of the 4-external file                ...      1254 MB
Size of the IKJL file                      ...         0 MB
Size of the all 3-external file            ...      2417 MB
Size of the 1-external file                ...         6 MB

Making pair/pair overlap matrices          ... done (    5.657 sec)
Size of the pair overlap file              ... 648 MB
Redoing the guess amplitudes               ... done (    0.023 sec)

-------------------------
FINAL STARTUP INFORMATION
-------------------------

E(0)                                       ...   -386.834328387
E(SL-MP2)                                  ...     -1.638108359
E(SL-MP2) including corrections            ...     -1.638108359
Initial E(tot)                             ...   -388.472436746
<T|T>                                      ...      0.511207235
Number of pairs included                   ... 293
Total number of pairs                      ... 378

------------------------------------------------
                  RHF COUPLED CLUSTER ITERATIONS
------------------------------------------------

Number of PNO amplitudes to be optimized   ...       462596
Number of non-PNO amplitudes               ...     64448573
Untruncated number of regular amplitudes   ...     83145258

Iter       E(tot)           E(Corr)          Delta-E          Residual     Time
  0   -388.472522155     -1.628311871      0.009796489      0.012146533   12.47
                           *** Turning on DIIS ***
  1   -388.531362957     -1.687152673     -0.058840802      0.008159771   11.99
  2   -388.574099262     -1.729888978     -0.042736305      0.003320350   12.10
  3   -388.581313456     -1.737103172     -0.007214195      0.002532507   12.10
  4   -388.583242333     -1.739032049     -0.001928876      0.001081114   12.07
  5   -388.583862367     -1.739652083     -0.000620034      0.000567776   12.24
  6   -388.584058994     -1.739848710     -0.000196627      0.000137392   12.31
  7   -388.584076132     -1.739865848     -0.000017138      0.000037792   12.20
  8   -388.584080968     -1.739870684     -0.000004836      0.000013145   12.12
               --- The Coupled-Cluster iterations have converged ---

----------------------
COUPLED CLUSTER ENERGY
----------------------

E(0)                                       ...   -386.834328387
E(CORR)(strong-pairs)                      ...     -1.739870684
E(CORR)(weak-pairs)                        ...     -0.009881897
E(CORR)(corrected)                         ...     -1.749752581
E(TOT)                                     ...   -388.584080968
Singles Norm <S|S>**1/2                    ...      0.065400496  
T1 diagnostic                              ...      0.008899880  

------------------
LARGEST AMPLITUDES
------------------
  18-> 38  18-> 38       0.061873
  13-> 37  13-> 37       0.051220
  11-> 37  11-> 37       0.051201
  22-> 38  22-> 38       0.038880
  20-> 38  20-> 38       0.038877
  33-> 40  33-> 40       0.038690
  19-> 39  19-> 39       0.037052
  21-> 39  21-> 39       0.037049
  15-> 39  15-> 39       0.033444
  16-> 39  16-> 39       0.033439
  31-> 40  31-> 40       0.032289
  36-> 40  36-> 40       0.032264
  26-> 41  26-> 41       0.032254
  23-> 41  23-> 41       0.032231
  32-> 37  32-> 37       0.031816
  35-> 37  35-> 37       0.031815


-------------------------------------------
DLPNO BASED TRIPLES CORRECTION
-------------------------------------------

Singles multiplier          ...  1.000000
TCutTNO                     ... 1.000e-09
TCutMP2Pairs                ... 1.000e-05
TCutDOStrong                ... 2.000e-02
TCutMKNStrong               ... 1.000e-02
TCutDOWeak                  ... 4.000e-02
TCutMKNWeak                 ... 1.000e-01

Fragment selection                          .... not used
Fock matrix occ-virt block is zero --> Setting DT_in_Triples to false.
Number of Triples that are to be computed   ...      2838

 . . . . . . . . .
10% done  
20% done  
30% done  
40% done  
50% done  
60% done  
70% done  
80% done  
90% done               (    276.160 sec)
Triples timings:
Total time for T0               ...   295.817 sec
Total time for Iterative (T)    ...     0.000 sec
Total time of overall (T)       ...   295.820 sec

Triples List generation         ...     0.000 sec
TNO generation                  ...    19.642 sec
Pair density generation         ...     0.005 sec
Look up tables                  ...     0.000 sec
Generating 3-index integrals    ...   190.447 sec
  Make 4-ind.int. from 3-ind.int...    26.600 sec
  Projecting amplitudes (D + S) ...    31.211 sec
  Downprojecting integrals      ...     0.003 sec
  Energy contr. (sum over a,b,c)...     6.175 sec
Fitting ET(->0)                 ...     0.000 sec

Everything after 3-index        ...    85.713 sec

Timing details:
 TNO integrals                  ...   213.358 sec
   Reading 3-index integrals    ...     0.841 sec
   Sorting integrals            ...    39.563 sec
       Sorting integrals 1      ...     0.002 sec
       Sorting integrals 2      ...    29.619 sec
       Sorting integrals 3      ...     1.597 sec
       Sorting integrals 4      ...     0.099 sec
       Sorting integrals 5      ...     0.235 sec
       Sorting integrals 6      ...     8.011 sec
   Calculating local VM**-1/2   ...     1.016 sec
   Orthogonal. integrals        ...     2.620 sec
   Multipl. 3-index integrals   ...   169.317 sec
   All concerning IRIab (w/TNO) ...    13.926 sec

 Calculate W0/W1                ...    21.703 sec
 W 3-ext contribution           ...    11.369 sec
 W 3-int contribution           ...     3.302 sec
 Sorting W                      ...     6.236 sec

 V exchange contribution        ...     1.692 sec

 Timings for Triples without generation
     of 3-index integrals       ...    85.707 sec
       0 weak pairs             ...    74.092 sec
       1 weak pair              ...    11.615 sec
       2 weak pairs             ...     0.000 sec
       3 weak pairs             ...     0.000 sec
  Extra time for extrapolation  ...     0.000 sec

Number of Triples   (0, 1, 2, 3 weak pairs; overall):   1951     887       0       0  (  2838)
Number of Atoms     (0, 1, 2, 3 weak pairs; overall):   16.6    14.5     0.0     0.0  (    24)
Number of PAOs      (0, 1, 2, 3 weak pairs; overall):  388.2   351.8     0.0     0.0  (   506)
Number of AuxFcns   (0, 1, 2, 3 weak pairs; overall):  475.5   361.1     0.0     0.0  (  1180)
Number of TNOs      (0, 1, 2, 3 weak pairs         ):   98.4    67.6     0.0     0.0
Aver. Number of NTNO, Atoms, PAOs, AuxFcns / Triples:   2838    88.8    16.0   376.8   439.8

Triples Correction (T)                     ...     -0.084185596
Final correlation energy                   ...     -1.833938177
E(CCSD)                                    ...   -388.584080968
E(CCSD(T))                                 ...   -388.668266563



--------------------------------------------------------------------------------
                                    TIMINGS
--------------------------------------------------------------------------------


Total execution time                   ...      673.172 sec

Localization of occupied MO's          ...        0.517 sec (  0.1%)
Fock Matrix Formation                  ...       33.306 sec (  4.9%)
Global overlap, Fock, MKN matrices     ...        0.514 sec (  0.1%)
Differential overlap integrals         ...        0.887 sec (  0.1%)
Organizing maps                        ...        0.049 sec (  0.0%)
RI 3-index integral generations        ...        7.099 sec (  1.1%)
RI-PNO integral transformation         ...      209.982 sec ( 31.2%)
Initial Guess                          ...       14.583 sec (  2.2%)
DIIS Solver                            ...        0.229 sec (  0.0%)
State Vector Update                    ...        0.016 sec (  0.0%)
Sigma-vector construction              ...      109.354 sec ( 16.2%)
  <D|H|D>(0-ext)                       ...        2.879 sec (  2.6% of sigma)
  <D|H|D>(2-ext Fock)                  ...        0.013 sec (  0.0% of sigma)
  <D|H|D>(2-ext)                       ...       17.777 sec ( 16.3% of sigma)
  <D|H|D>(4-ext)                       ...       12.226 sec ( 11.2% of sigma)
  <D|H|D>(4-ext-corr)                  ...       57.827 sec ( 52.9% of sigma)
  CCSD doubles correction              ...        0.207 sec (  0.2% of sigma)
  <S|H|S>                              ...        1.704 sec (  1.6% of sigma)
  <S|H|D>(1-ext)                       ...        0.361 sec (  0.3% of sigma)
  <D|H|S>(1-ext)                       ...        0.011 sec (  0.0% of sigma)
  <S|H|D>(3-ext)                       ...        0.271 sec (  0.2% of sigma)
  Fock-dressing                        ...       10.909 sec ( 10.0% of sigma)
  Singles amplitudes                   ...        0.720 sec (  0.7% of sigma)
  (ik|jl)-dressing                     ...        2.194 sec (  2.0% of sigma)
  (ij|ab),(ia|jb)-dressing             ...        2.116 sec (  1.9% of sigma)
  Pair energies                        ...        0.008 sec (  0.0% of sigma)
Total Time for computing (T)           ...      296.088 sec ( 44.0% of ALL)


Maximum memory used throughout the entire MDCI-calculation: 13527.0 MB

-------------------------   --------------------
FINAL SINGLE POINT ENERGY      -388.668266563416
-------------------------   --------------------


                            ***************************************
                            *     ORCA property calculations      *
                            ***************************************


  WARNING: The energy has been calculated at the MDCI level but the densities
           used in the property calculations are still SCF densities
           MDCI response densities have not been calculated 
           use %mdci Density linearized end
           or  %mdci Density unrelaxed end
           or  %mdci Density orbopt end

                                    ---------------------
                                    Active property flags
                                    ---------------------



Timings for individual modules:

Sum of individual times         ...      939.301 sec (=  15.655 min)
GTO integral calculation        ...        1.401 sec (=   0.023 min)   0.1 %
SCF iterations                  ...      263.277 sec (=   4.388 min)  28.0 %
MDCI module                     ...      674.622 sec (=  11.244 min)  71.8 %
                             ****ORCA TERMINATED NORMALLY****
TOTAL RUN TIME: 0 days 0 hours 15 minutes 39 seconds 577 msec
