Job Start Time: Tue Sep  6 22:56:37 MDT 2022
SLURM Job ID: 71218
SLURM Job Name: Do1_crest_conf_1
 Entering Gaussian System, Link 0=/opt/apps/Gaussian/G16C/g16/g16
 Initial command:
 /opt/apps/Gaussian/G16C/g16/l1.exe "/tmp/Gau-3073411.inp" -scrdir="/tmp/"
 Entering Link 1 = /opt/apps/Gaussian/G16C/g16/l1.exe PID=   3073412.
  
 Copyright (c) 1988-2019, Gaussian, Inc.  All Rights Reserved.
  
 This is part of the Gaussian(R) 16 program.  It is based on
 the Gaussian(R) 09 system (copyright 2009, Gaussian, Inc.),
 the Gaussian(R) 03 system (copyright 2003, Gaussian, Inc.),
 the Gaussian(R) 98 system (copyright 1998, Gaussian, Inc.),
 the Gaussian(R) 94 system (copyright 1995, Gaussian, Inc.),
 the Gaussian 92(TM) system (copyright 1992, Gaussian, Inc.),
 the Gaussian 90(TM) system (copyright 1990, Gaussian, Inc.),
 the Gaussian 88(TM) system (copyright 1988, Gaussian, Inc.),
 the Gaussian 86(TM) system (copyright 1986, Carnegie Mellon
 University), and the Gaussian 82(TM) system (copyright 1983,
 Carnegie Mellon University). Gaussian is a federally registered
 trademark of Gaussian, Inc.
  
 This software contains proprietary and confidential information,
 including trade secrets, belonging to Gaussian, Inc.
  
 This software is provided under written license and may be
 used, copied, transmitted, or stored only in accord with that
 written license.
  
 The following legend is applicable only to US Government
 contracts under FAR:
  
                    RESTRICTED RIGHTS LEGEND
  
 Use, reproduction and disclosure by the US Government is
 subject to restrictions as set forth in subparagraphs (a)
 and (c) of the Commercial Computer Software - Restricted
 Rights clause in FAR 52.227-19.
  
 Gaussian, Inc.
 340 Quinnipiac St., Bldg. 40, Wallingford CT 06492
  
  
 ---------------------------------------------------------------
 Warning -- This program may not be used in any manner that
 competes with the business of Gaussian, Inc. or will provide
 assistance to any competitor of Gaussian, Inc.  The licensee
 of this program is prohibited from giving any competitor of
 Gaussian, Inc. access to this program.  By using this program,
 the user acknowledges that Gaussian, Inc. is engaged in the
 business of creating and licensing software in the field of
 computational chemistry and represents and warrants to the
 licensee that it is not a competitor of Gaussian, Inc. and that
 it will not use this program in any manner prohibited above.
 ---------------------------------------------------------------
  

 Cite this work as:
 Gaussian 16, Revision C.01,
 M. J. Frisch, G. W. Trucks, H. B. Schlegel, G. E. Scuseria, 
 M. A. Robb, J. R. Cheeseman, G. Scalmani, V. Barone, 
 G. A. Petersson, H. Nakatsuji, X. Li, M. Caricato, A. V. Marenich, 
 J. Bloino, B. G. Janesko, R. Gomperts, B. Mennucci, H. P. Hratchian, 
 J. V. Ortiz, A. F. Izmaylov, J. L. Sonnenberg, D. Williams-Young, 
 F. Ding, F. Lipparini, F. Egidi, J. Goings, B. Peng, A. Petrone, 
 T. Henderson, D. Ranasinghe, V. G. Zakrzewski, J. Gao, N. Rega, 
 G. Zheng, W. Liang, M. Hada, M. Ehara, K. Toyota, R. Fukuda, 
 J. Hasegawa, M. Ishida, T. Nakajima, Y. Honda, O. Kitao, H. Nakai, 
 T. Vreven, K. Throssell, J. A. Montgomery, Jr., J. E. Peralta, 
 F. Ogliaro, M. J. Bearpark, J. J. Heyd, E. N. Brothers, K. N. Kudin, 
 V. N. Staroverov, T. A. Keith, R. Kobayashi, J. Normand, 
 K. Raghavachari, A. P. Rendell, J. C. Burant, S. S. Iyengar, 
 J. Tomasi, M. Cossi, J. M. Millam, M. Klene, C. Adamo, R. Cammi, 
 J. W. Ochterski, R. L. Martin, K. Morokuma, O. Farkas, 
 J. B. Foresman, and D. J. Fox, Gaussian, Inc., Wallingford CT, 2019.
 
 ******************************************
 Gaussian 16:  AS64L-G16RevC.01  3-Jul-2019
                 6-Sep-2022 
 ******************************************
 %nprocshared=16
 Will use up to   16 processors via shared memory.
 %mem=72GB
 -------------------------
 # B3LYP/def2tzvp opt freq
 -------------------------
 1/18=20,19=15,26=3,38=1/1,3;
 2/9=110,12=2,17=6,18=5,40=1/2;
 3/5=44,7=101,11=2,25=1,30=1,71=1,74=-5/1,2,3;
 4//1;
 5/5=2,38=5/2;
 6/7=2,8=2,9=2,10=2,28=1/1;
 7//1,2,3,16;
 1/18=20,19=15,26=3/3(2);
 2/9=110/2;
 99//99;
 2/9=110/2;
 3/5=44,7=101,11=2,25=1,30=1,71=1,74=-5/1,2,3;
 4/5=5,16=3,69=1/1;
 5/5=2,38=5/2;
 7//1,2,3,16;
 1/18=20,19=15,26=3/3(-5);
 2/9=110/2;
 6/7=2,8=2,9=2,10=2,19=2,28=1/1;
 99/9=1/99;
 ----------------
 Do1_crest_conf_1
 ----------------
 Symbolic Z-matrix:
 Charge =  0 Multiplicity = 1
 C                    -0.4777    0.6484    0. 
 C                    -0.4779   -0.6483    0. 
 C                     0.875    -0.0001    0. 
 H                    -0.9905    1.5778   -0.0001 
 H                    -0.9907   -1.5778    0.0001 
 H                     1.4709   -0.0001    0.9068 
 H                     1.4709   -0.0002   -0.9069 
 

 GradGradGradGradGradGradGradGradGradGradGradGradGradGradGradGradGradGrad
 Berny optimization.
 Initialization pass.
                           ----------------------------
                           !    Initial Parameters    !
                           ! (Angstroms and Degrees)  !
 --------------------------                            --------------------------
 ! Name  Definition              Value          Derivative Info.                !
 --------------------------------------------------------------------------------
 ! R1    R(1,2)                  1.2967         estimate D2E/DX2                !
 ! R2    R(1,3)                  1.5001         estimate D2E/DX2                !
 ! R3    R(1,4)                  1.0615         estimate D2E/DX2                !
 ! R4    R(2,3)                  1.5002         estimate D2E/DX2                !
 ! R5    R(2,5)                  1.0616         estimate D2E/DX2                !
 ! R6    R(3,6)                  1.0851         estimate D2E/DX2                !
 ! R7    R(3,7)                  1.0852         estimate D2E/DX2                !
 ! A1    A(2,1,4)              151.1033         estimate D2E/DX2                !
 ! A2    A(3,1,4)              144.5015         estimate D2E/DX2                !
 ! A3    A(1,2,5)              151.1236         estimate D2E/DX2                !
 ! A4    A(3,2,5)              144.4852         estimate D2E/DX2                !
 ! A5    A(1,3,6)              119.6837         estimate D2E/DX2                !
 ! A6    A(1,3,7)              119.6838         estimate D2E/DX2                !
 ! A7    A(2,3,6)              119.6874         estimate D2E/DX2                !
 ! A8    A(2,3,7)              119.6823         estimate D2E/DX2                !
 ! A9    A(6,3,7)              113.3814         estimate D2E/DX2                !
 ! D1    D(4,1,2,5)             -0.0223         estimate D2E/DX2                !
 ! D2    D(4,1,3,6)             74.1503         estimate D2E/DX2                !
 ! D3    D(4,1,3,7)            -74.1386         estimate D2E/DX2                !
 ! D4    D(5,2,3,6)            -74.1392         estimate D2E/DX2                !
 ! D5    D(5,2,3,7)             74.1542         estimate D2E/DX2                !
 --------------------------------------------------------------------------------
 Trust Radius=3.00D-01 FncErr=1.00D-07 GrdErr=1.00D-06 EigMax=2.50D+02 EigMin=1.00D-04
 Number of steps in this run=     31 maximum allowed number of steps=    100.
 GradGradGradGradGradGradGradGradGradGradGradGradGradGradGradGradGradGrad

                          Input orientation:                          
 ---------------------------------------------------------------------
 Center     Atomic      Atomic             Coordinates (Angstroms)
 Number     Number       Type             X           Y           Z
 ---------------------------------------------------------------------
      1          6           0       -0.477700    0.648400    0.000000
      2          6           0       -0.477900   -0.648300    0.000000
      3          6           0        0.875000   -0.000100    0.000000
      4          1           0       -0.990500    1.577800   -0.000100
      5          1           0       -0.990700   -1.577800    0.000100
      6          1           0        1.470900   -0.000100    0.906800
      7          1           0        1.470900   -0.000200   -0.906900
 ---------------------------------------------------------------------
                    Distance matrix (angstroms):
                    1          2          3          4          5
     1  C    0.000000
     2  C    1.296700   0.000000
     3  C    1.500117   1.500167   0.000000
     4  H    1.061484   2.284355   2.443329   0.000000
     5  H    2.284543   1.061572   2.443353   3.155600   0.000000
     6  H    2.244968   2.245055   1.085073   3.061164   3.061163
     7  H    2.245037   2.245066   1.085156   3.061186   3.061200
                    6          7
     6  H    0.000000
     7  H    1.813700   0.000000
 Stoichiometry    C3H4
 Framework group  C1[X(C3H4)]
 Deg. of freedom    15
 Full point group                 C1      NOp   1
 Largest Abelian subgroup         C1      NOp   1
 Largest concise Abelian subgroup C1      NOp   1
                         Standard orientation:                         
 ---------------------------------------------------------------------
 Center     Atomic      Atomic             Coordinates (Angstroms)
 Number     Number       Type             X           Y           Z
 ---------------------------------------------------------------------
      1          6           0        0.499409    0.648392   -0.000005
      2          6           0        0.499554   -0.648308   -0.000005
      3          6           0       -0.853318   -0.000050   -0.000005
      4          1           0        1.012249    1.577771    0.000095
      5          1           0        1.012315   -1.577829   -0.000105
      6          1           0       -1.449218   -0.000025   -0.906805
      7          1           0       -1.449218   -0.000125    0.906895
 ---------------------------------------------------------------------
 Rotational constants (GHZ):          30.1465482          22.2997009          13.9948181
 Standard basis: def2TZVP (5D, 7F)
 There are   132 symmetry adapted cartesian basis functions of A   symmetry.
 There are   117 symmetry adapted basis functions of A   symmetry.
   117 basis functions,   185 primitive gaussians,   132 cartesian basis functions
    11 alpha electrons       11 beta electrons
       nuclear repulsion energy        64.1102823703 Hartrees.
 NAtoms=    7 NActive=    7 NUniq=    7 SFac= 1.00D+00 NAtFMM=   60 NAOKFM=F Big=F
 Integral buffers will be    131072 words long.
 Raffenetti 2 integral format.
 Two-electron integral symmetry is turned on.
 One-electron integrals computed using PRISM.
   1 Symmetry operations used in ECPInt.
 ECPInt:  NShTT=    1225 NPrTT=    3648 LenC2=    1224 LenP2D=    3299.
 LDataN:  DoStor=T MaxTD1= 6 Len=  172
 NBasis=   117 RedAO= T EigKep=  8.96D-05  NBF=   117
 NBsUse=   117 1.00D-06 EigRej= -1.00D+00 NBFU=   117
 ExpMin= 9.52D-02 ExpMax= 1.36D+04 ExpMxC= 4.63D+02 IAcc=3 IRadAn=         5 AccDes= 0.00D+00
 Harris functional with IExCor=  402 and IRadAn=       5 diagonalized for initial guess.
 HarFok:  IExCor=  402 AccDes= 0.00D+00 IRadAn=         5 IDoV= 1 UseB2=F ITyADJ=14
 ICtDFT=  3500011 ScaDFX=  1.000000  1.000000  1.000000  1.000000
 FoFCou: FMM=F IPFlag=           0 FMFlag=      100000 FMFlg1=           0
         NFxFlg=           0 DoJE=T BraDBF=F KetDBF=T FulRan=T
         wScrn=  0.000000 ICntrl=       500 IOpCl=  0 I1Cent=   200000004 NGrid=           0
         NMat0=    1 NMatS0=      1 NMatT0=    0 NMatD0=    1 NMtDS0=    0 NMtDT0=    0
 Petite list used in FoFCou.
 Keep R1 ints in memory in canonical form, NReq=39185764.
 Requested convergence on RMS density matrix=1.00D-08 within 128 cycles.
 Requested convergence on MAX density matrix=1.00D-06.
 Requested convergence on             energy=1.00D-06.
 No special actions if energy rises.
 Integral accuracy reduced to 1.0D-05 until final iterations.
 Initial convergence to 1.0D-05 achieved.  Increase integral accuracy.
 SCF Done:  E(RB3LYP) =  -116.666744480     A.U. after   12 cycles
            NFock= 12  Conv=0.15D-08     -V/T= 2.0052

 **********************************************************************

            Population analysis using the SCF Density.

 **********************************************************************

 Orbital symmetries:
       Occupied  (A) (A) (A) (A) (A) (A) (A) (A) (A) (A) (A)
       Virtual   (A) (A) (A) (A) (A) (A) (A) (A) (A) (A) (A) (A)
                 (A) (A) (A) (A) (A) (A) (A) (A) (A) (A) (A) (A)
                 (A) (A) (A) (A) (A) (A) (A) (A) (A) (A) (A) (A)
                 (A) (A) (A) (A) (A) (A) (A) (A) (A) (A) (A) (A)
                 (A) (A) (A) (A) (A) (A) (A) (A) (A) (A) (A) (A)
                 (A) (A) (A) (A) (A) (A) (A) (A) (A) (A) (A) (A)
                 (A) (A) (A) (A) (A) (A) (A) (A) (A) (A) (A) (A)
                 (A) (A) (A) (A) (A) (A) (A) (A) (A) (A) (A) (A)
                 (A) (A) (A) (A) (A) (A) (A) (A) (A) (A)
 The electronic state is 1-A.
 Alpha  occ. eigenvalues --  -10.18897 -10.18776 -10.18105  -0.87453  -0.60297
 Alpha  occ. eigenvalues --   -0.57335  -0.51221  -0.44012  -0.35438  -0.30157
 Alpha  occ. eigenvalues --   -0.25714
 Alpha virt. eigenvalues --   -0.00772   0.06773   0.07349   0.08623   0.11285
 Alpha virt. eigenvalues --    0.13692   0.13830   0.18015   0.19350   0.21375
 Alpha virt. eigenvalues --    0.23484   0.29767   0.30206   0.31186   0.33255
 Alpha virt. eigenvalues --    0.37677   0.39033   0.41380   0.41829   0.45652
 Alpha virt. eigenvalues --    0.46247   0.52161   0.55278   0.64520   0.70684
 Alpha virt. eigenvalues --    0.71314   0.82808   0.88650   0.88752   0.95009
 Alpha virt. eigenvalues --    0.98984   1.01437   1.02604   1.05657   1.07550
 Alpha virt. eigenvalues --    1.08003   1.10632   1.16022   1.30548   1.43277
 Alpha virt. eigenvalues --    1.44808   1.45606   1.47399   1.57554   1.58312
 Alpha virt. eigenvalues --    1.66158   1.70421   1.78610   1.87590   1.88363
 Alpha virt. eigenvalues --    1.95731   1.97112   2.02842   2.04424   2.12937
 Alpha virt. eigenvalues --    2.17957   2.27065   2.31137   2.34633   2.40053
 Alpha virt. eigenvalues --    2.48954   2.53278   2.59901   2.60294   2.62492
 Alpha virt. eigenvalues --    2.65306   2.67899   2.68978   2.69635   2.75213
 Alpha virt. eigenvalues --    2.85125   2.89237   2.97023   2.97156   3.02397
 Alpha virt. eigenvalues --    3.04795   3.06876   3.12152   3.24277   3.25300
 Alpha virt. eigenvalues --    3.26538   3.32831   3.36887   3.40645   3.52123
 Alpha virt. eigenvalues --    3.57903   3.58333   3.62464   3.73654   3.98354
 Alpha virt. eigenvalues --    4.04370   4.07562   4.13230   4.20695   4.22189
 Alpha virt. eigenvalues --    4.29368   4.43858   4.44577   4.45734   4.66873
 Alpha virt. eigenvalues --    4.92932   5.02397   5.26268  22.18109  22.30980
 Alpha virt. eigenvalues --   22.51118
          Condensed to atoms (all electrons):
               1          2          3          4          5          6
     1  C    4.988950   0.588978   0.247178   0.386110  -0.006424  -0.043263
     2  C    0.588978   4.988934   0.247200  -0.006446   0.386090  -0.043279
     3  C    0.247178   0.247200   4.938561  -0.029348  -0.029360   0.433309
     4  H    0.386110  -0.006446  -0.029348   0.504636  -0.001948  -0.000511
     5  H   -0.006424   0.386090  -0.029360  -0.001948   0.504627  -0.000513
     6  H   -0.043263  -0.043279   0.433309  -0.000511  -0.000513   0.620430
     7  H   -0.043276  -0.043265   0.433287  -0.000513  -0.000511  -0.056797
               7
     1  C   -0.043276
     2  C   -0.043265
     3  C    0.433287
     4  H   -0.000513
     5  H   -0.000511
     6  H   -0.056797
     7  H    0.620467
 Mulliken charges:
               1
     1  C   -0.118253
     2  C   -0.118212
     3  C   -0.240826
     4  H    0.148020
     5  H    0.148040
     6  H    0.090623
     7  H    0.090608
 Sum of Mulliken charges =  -0.00000
 Mulliken charges with hydrogens summed into heavy atoms:
               1
     1  C    0.029768
     2  C    0.029828
     3  C   -0.059595
 Electronic spatial extent (au):  <R**2>=            131.3763
 Charge=             -0.0000 electrons
 Dipole moment (field-independent basis, Debye):
    X=              0.4515    Y=             -0.0001    Z=             -0.0001  Tot=              0.4515
 Quadrupole moment (field-independent basis, Debye-Ang):
   XX=            -18.8760   YY=            -16.8333   ZZ=            -19.5688
   XY=             -0.0001   XZ=              0.0001   YZ=              0.0002
 Traceless Quadrupole moment (field-independent basis, Debye-Ang):
   XX=             -0.4500   YY=              1.5927   ZZ=             -1.1427
   XY=             -0.0001   XZ=              0.0001   YZ=              0.0002
 Octapole moment (field-independent basis, Debye-Ang**2):
  XXX=              0.1512  YYY=             -0.0007  ZZZ=             -0.0001  XYY=              4.7521
  XXY=             -0.0000  XXZ=             -0.0003  XZZ=             -1.5412  YZZ=              0.0001
  YYZ=             -0.0001  XYZ=              0.0005
 Hexadecapole moment (field-independent basis, Debye-Ang**3):
 XXXX=            -90.1834 YYYY=            -59.2281 ZZZZ=            -29.7933 XXXY=              0.0006
 XXXZ=              0.0012 YYYX=             -0.0010 YYYZ=              0.0006 ZZZX=              0.0008
 ZZZY=             -0.0005 XXYY=            -23.2868 XXZZ=            -19.9079 YYZZ=            -17.0043
 XXYZ=              0.0001 YYXZ=              0.0003 ZZXY=              0.0001
 N-N= 6.411028237032D+01 E-N=-3.983299296892D+02  KE= 1.160588250135D+02
   1 Symmetry operations used in ECPInt.
 ECPInt:  NShTT=    1225 NPrTT=    3648 LenC2=    1224 LenP2D=    3299.
 LDataN:  DoStor=T MaxTD1= 7 Len=  274
 Calling FoFJK, ICntrl=      2127 FMM=F ISym2X=0 I1Cent= 0 IOpClX= 0 NMat=1 NMatS=1 NMatT=0.
 ***** Axes restored to original set *****
 -------------------------------------------------------------------
 Center     Atomic                   Forces (Hartrees/Bohr)
 Number     Number              X              Y              Z
 -------------------------------------------------------------------
      1        6           0.003627678   -0.019805228   -0.000008591
      2        6           0.003652722    0.019738705    0.000011282
      3        6           0.001888716   -0.000000785   -0.000047856
      4        1          -0.006232377    0.007860059    0.000002189
      5        1          -0.006213993   -0.007789669   -0.000002449
      6        1           0.001651901   -0.000003610    0.002520214
      7        1           0.001625352    0.000000527   -0.002474788
 -------------------------------------------------------------------
 Cartesian Forces:  Max     0.019805228 RMS     0.007002374

 GradGradGradGradGradGradGradGradGradGradGradGradGradGradGradGradGradGrad
 Berny optimization.
 FormGI is forming the generalized inverse of G from B-inverse, IUseBI=4.
 Internal  Forces:  Max     0.012444928 RMS     0.004427461
 Search for a local minimum.
 Step number   1 out of a maximum of   31
 All quantities printed in internal units (Hartrees-Bohrs-Radians)
 Mixed Optimization -- RFO/linear search
 Second derivative matrix not updated -- first step.
 ITU=  0
     Eigenvalues ---    0.00764   0.02046   0.03794   0.06353   0.13538
     Eigenvalues ---    0.16000   0.16000   0.16000   0.28875   0.31554
     Eigenvalues ---    0.35378   0.35388   0.38316   0.38327   0.63295
 RFO step:  Lambda=-9.61419675D-04 EMin= 7.64071409D-03
 Linear search not attempted -- first point.
 Iteration  1 RMS(Cart)=  0.01329362 RMS(Int)=  0.00008710
 Iteration  2 RMS(Cart)=  0.00011227 RMS(Int)=  0.00000965
 Iteration  3 RMS(Cart)=  0.00000001 RMS(Int)=  0.00000965
 Variable       Old X    -DE/DX   Delta X   Delta X   Delta X     New X
                                 (Linear)    (Quad)   (Total)
    R1        2.45041  -0.01244   0.00000  -0.01997  -0.01998   2.43042
    R2        2.83481   0.00255   0.00000   0.00944   0.00944   2.84425
    R3        2.00591   0.00989   0.00000   0.02575   0.02575   2.03166
    R4        2.83491   0.00254   0.00000   0.00938   0.00938   2.84429
    R5        2.00608   0.00982   0.00000   0.02557   0.02557   2.03165
    R6        2.05049   0.00301   0.00000   0.00849   0.00849   2.05898
    R7        2.05065   0.00296   0.00000   0.00835   0.00835   2.05899
    A1        2.63725  -0.00309   0.00000  -0.01308  -0.01307   2.62418
    A2        2.52203   0.00024   0.00000   0.00760   0.00762   2.52964
    A3        2.63760  -0.00312   0.00000  -0.01322  -0.01321   2.62440
    A4        2.52174   0.00025   0.00000   0.00770   0.00771   2.52945
    A5        2.08887   0.00087   0.00000   0.00093   0.00092   2.08980
    A6        2.08888   0.00087   0.00000   0.00090   0.00089   2.08976
    A7        2.08894   0.00087   0.00000   0.00085   0.00084   2.08978
    A8        2.08885   0.00088   0.00000   0.00092   0.00091   2.08976
    A9        1.97888  -0.00021   0.00000   0.00138   0.00137   1.98025
    D1       -0.00039   0.00001   0.00000   0.00010   0.00010  -0.00029
    D2        1.29417   0.00151   0.00000   0.00346   0.00345   1.29762
    D3       -1.29396  -0.00151   0.00000  -0.00341  -0.00340  -1.29736
    D4       -1.29397  -0.00151   0.00000  -0.00337  -0.00336  -1.29733
    D5        1.29423   0.00151   0.00000   0.00339   0.00338   1.29761
         Item               Value     Threshold  Converged?
 Maximum Force            0.012445     0.000450     NO 
 RMS     Force            0.004427     0.000300     NO 
 Maximum Displacement     0.033020     0.001800     NO 
 RMS     Displacement     0.013347     0.001200     NO 
 Predicted change in Energy=-4.817710D-04
 GradGradGradGradGradGradGradGradGradGradGradGradGradGradGradGradGradGrad

                          Input orientation:                          
 ---------------------------------------------------------------------
 Center     Atomic      Atomic             Coordinates (Angstroms)
 Number     Number       Type             X           Y           Z
 ---------------------------------------------------------------------
      1          6           0       -0.476296    0.643095   -0.000020
      2          6           0       -0.476441   -0.643030    0.000010
      3          6           0        0.884464   -0.000100   -0.000018
      4          1           0       -1.007973    1.577535   -0.000116
      5          1           0       -1.008124   -1.577460    0.000114
      6          1           0        1.482204   -0.000157    0.910949
      7          1           0        1.482165   -0.000184   -0.911019
 ---------------------------------------------------------------------
                    Distance matrix (angstroms):
                    1          2          3          4          5
     1  C    0.000000
     2  C    1.286125   0.000000
     3  C    1.505114   1.505132   0.000000
     4  H    1.075109   2.283295   2.463788   0.000000
     5  H    2.283354   1.075103   2.463728   3.154995   0.000000
     6  H    2.253744   2.253749   1.089567   3.085472   3.085326
     7  H    2.253730   2.253745   1.089573   3.085407   3.085370
                    6          7
     6  H    0.000000
     7  H    1.821969   0.000000
 Stoichiometry    C3H4
 Framework group  C1[X(C3H4)]
 Deg. of freedom    15
 Full point group                 C1      NOp   1
 Largest Abelian subgroup         C1      NOp   1
 Largest concise Abelian subgroup C1      NOp   1
                         Standard orientation:                         
 ---------------------------------------------------------------------
 Center     Atomic      Atomic             Coordinates (Angstroms)
 Number     Number       Type             X           Y           Z
 ---------------------------------------------------------------------
      1          6           0        0.500861    0.643054    0.000009
      2          6           0        0.500843   -0.643072   -0.000021
      3          6           0       -0.859981    0.000030    0.000007
      4          1           0        1.032655    1.577427    0.000105
      5          1           0        1.032408   -1.577569   -0.000125
      6          1           0       -1.457721    0.000048   -0.910960
      7          1           0       -1.457682    0.000021    0.911008
 ---------------------------------------------------------------------
 Rotational constants (GHZ):          30.4199138          21.9899905          13.9414473
 Standard basis: def2TZVP (5D, 7F)
 There are   132 symmetry adapted cartesian basis functions of A   symmetry.
 There are   117 symmetry adapted basis functions of A   symmetry.
   117 basis functions,   185 primitive gaussians,   132 cartesian basis functions
    11 alpha electrons       11 beta electrons
       nuclear repulsion energy        63.9987919939 Hartrees.
 NAtoms=    7 NActive=    7 NUniq=    7 SFac= 1.00D+00 NAtFMM=   60 NAOKFM=F Big=F
 Integral buffers will be    131072 words long.
 Raffenetti 2 integral format.
 Two-electron integral symmetry is turned on.
 One-electron integrals computed using PRISM.
   1 Symmetry operations used in ECPInt.
 ECPInt:  NShTT=    1225 NPrTT=    3648 LenC2=    1224 LenP2D=    3297.
 LDataN:  DoStor=T MaxTD1= 6 Len=  172
 NBasis=   117 RedAO= T EigKep=  8.64D-05  NBF=   117
 NBsUse=   117 1.00D-06 EigRej= -1.00D+00 NBFU=   117
 Initial guess from the checkpoint file:  "/tmp/Gau-3073412.chk"
 B after Tr=    -0.000000    0.000000    0.000000
         Rot=    1.000000   -0.000004   -0.000002    0.000047 Ang=  -0.01 deg.
 ExpMin= 9.52D-02 ExpMax= 1.36D+04 ExpMxC= 4.63D+02 IAcc=3 IRadAn=         5 AccDes= 0.00D+00
 Harris functional with IExCor=  402 and IRadAn=       5 diagonalized for initial guess.
 HarFok:  IExCor=  402 AccDes= 0.00D+00 IRadAn=         5 IDoV= 1 UseB2=F ITyADJ=14
 ICtDFT=  3500011 ScaDFX=  1.000000  1.000000  1.000000  1.000000
 FoFCou: FMM=F IPFlag=           0 FMFlag=      100000 FMFlg1=           0
         NFxFlg=           0 DoJE=T BraDBF=F KetDBF=T FulRan=T
         wScrn=  0.000000 ICntrl=       500 IOpCl=  0 I1Cent=   200000004 NGrid=           0
         NMat0=    1 NMatS0=      1 NMatT0=    0 NMatD0=    1 NMtDS0=    0 NMtDT0=    0
 Petite list used in FoFCou.
 Keep R1 ints in memory in canonical form, NReq=39185764.
 Requested convergence on RMS density matrix=1.00D-08 within 128 cycles.
 Requested convergence on MAX density matrix=1.00D-06.
 Requested convergence on             energy=1.00D-06.
 No special actions if energy rises.
 Integral accuracy reduced to 1.0D-05 until final iterations.
 Initial convergence to 1.0D-05 achieved.  Increase integral accuracy.
 SCF Done:  E(RB3LYP) =  -116.667231389     A.U. after   10 cycles
            NFock= 10  Conv=0.42D-08     -V/T= 2.0055
   1 Symmetry operations used in ECPInt.
 ECPInt:  NShTT=    1225 NPrTT=    3648 LenC2=    1224 LenP2D=    3297.
 LDataN:  DoStor=T MaxTD1= 7 Len=  274
 Calling FoFJK, ICntrl=      2127 FMM=F ISym2X=0 I1Cent= 0 IOpClX= 0 NMat=1 NMatS=1 NMatT=0.
 ***** Axes restored to original set *****
 -------------------------------------------------------------------
 Center     Atomic                   Forces (Hartrees/Bohr)
 Number     Number              X              Y              Z
 -------------------------------------------------------------------
      1        6           0.000731992    0.001384603   -0.000004710
      2        6           0.000758721   -0.001390134    0.000006168
      3        6           0.000626740   -0.000000659   -0.000005633
      4        1          -0.000684036   -0.000359559    0.000003103
      5        1          -0.000695286    0.000363879   -0.000003075
      6        1          -0.000368830    0.000002421   -0.000078210
      7        1          -0.000369301   -0.000000551    0.000082356
 -------------------------------------------------------------------
 Cartesian Forces:  Max     0.001390134 RMS     0.000571228

 GradGradGradGradGradGradGradGradGradGradGradGradGradGradGradGradGradGrad
 Berny optimization.
 Using GEDIIS/GDIIS optimizer.
 FormGI is forming the generalized inverse of G from B-inverse, IUseBI=4.
 Internal  Forces:  Max     0.000855912 RMS     0.000397880
 Search for a local minimum.
 Step number   2 out of a maximum of   31
 All quantities printed in internal units (Hartrees-Bohrs-Radians)
 Mixed Optimization -- En-DIIS/RFO-DIIS
 Update second derivatives using D2CorX and points    1    2
 DE= -4.87D-04 DEPred=-4.82D-04 R= 1.01D+00
 TightC=F SS=  1.41D+00  RLast= 5.05D-02 DXNew= 5.0454D-01 1.5146D-01
 Trust test= 1.01D+00 RLast= 5.05D-02 DXMaxT set to 3.00D-01
 ITU=  1  0
 Use linear search instead of GDIIS.
     Eigenvalues ---    0.00764   0.02003   0.03721   0.06379   0.13509
     Eigenvalues ---    0.14897   0.16000   0.16000   0.28815   0.31586
     Eigenvalues ---    0.35383   0.35623   0.38322   0.38902   0.65881
 RFO step:  Lambda=-1.82519790D-05 EMin= 7.64071231D-03
 Quartic linear search produced a step of  0.01814.
 Iteration  1 RMS(Cart)=  0.00272189 RMS(Int)=  0.00000852
 Iteration  2 RMS(Cart)=  0.00000836 RMS(Int)=  0.00000025
 Iteration  3 RMS(Cart)=  0.00000000 RMS(Int)=  0.00000025
 Variable       Old X    -DE/DX   Delta X   Delta X   Delta X     New X
                                 (Linear)    (Quad)   (Total)
    R1        2.43042   0.00069  -0.00036   0.00105   0.00068   2.43111
    R2        2.84425   0.00009   0.00017   0.00028   0.00045   2.84470
    R3        2.03166   0.00003   0.00047   0.00009   0.00056   2.03222
    R4        2.84429   0.00009   0.00017   0.00027   0.00044   2.84472
    R5        2.03165   0.00003   0.00046   0.00010   0.00056   2.03221
    R6        2.05898  -0.00027   0.00015  -0.00076  -0.00061   2.05837
    R7        2.05899  -0.00027   0.00015  -0.00077  -0.00062   2.05837
    A1        2.62418  -0.00072  -0.00024  -0.00492  -0.00516   2.61902
    A2        2.52964   0.00085   0.00014   0.00509   0.00522   2.53487
    A3        2.62440  -0.00074  -0.00024  -0.00500  -0.00524   2.61915
    A4        2.52945   0.00086   0.00014   0.00516   0.00530   2.53475
    A5        2.08980  -0.00015   0.00002  -0.00091  -0.00089   2.08890
    A6        2.08976  -0.00015   0.00002  -0.00087  -0.00085   2.08891
    A7        2.08978  -0.00015   0.00002  -0.00086  -0.00085   2.08893
    A8        2.08976  -0.00015   0.00002  -0.00087  -0.00086   2.08890
    A9        1.98025   0.00027   0.00002   0.00192   0.00194   1.98220
    D1       -0.00029   0.00000   0.00000   0.00007   0.00007  -0.00022
    D2        1.29762   0.00001   0.00006   0.00038   0.00044   1.29806
    D3       -1.29736  -0.00001  -0.00006  -0.00049  -0.00056  -1.29792
    D4       -1.29733  -0.00001  -0.00006  -0.00053  -0.00059  -1.29793
    D5        1.29761   0.00001   0.00006   0.00042   0.00048   1.29809
         Item               Value     Threshold  Converged?
 Maximum Force            0.000856     0.000450     NO 
 RMS     Force            0.000398     0.000300     NO 
 Maximum Displacement     0.006358     0.001800     NO 
 RMS     Displacement     0.002723     0.001200     NO 
 Predicted change in Energy=-9.258484D-06
 GradGradGradGradGradGradGradGradGradGradGradGradGradGradGradGradGradGrad

                          Input orientation:                          
 ---------------------------------------------------------------------
 Center     Atomic      Atomic             Coordinates (Angstroms)
 Number     Number       Type             X           Y           Z
 ---------------------------------------------------------------------
      1          6           0       -0.474645    0.643262   -0.000022
      2          6           0       -0.474775   -0.643226    0.000009
      3          6           0        0.886297   -0.000107   -0.000024
      4          1           0       -1.011296    1.575196   -0.000095
      5          1           0       -1.011488   -1.575118    0.000099
      6          1           0        1.482970   -0.000109    0.911258
      7          1           0        1.482938   -0.000197   -0.911326
 ---------------------------------------------------------------------
                    Distance matrix (angstroms):
                    1          2          3          4          5
     1  C    0.000000
     2  C    1.286487   0.000000
     3  C    1.505353   1.505363   0.000000
     4  H    1.075404   2.282378   2.466260   0.000000
     5  H    2.282413   1.075400   2.466221   3.150314   0.000000
     6  H    2.253135   2.253163   1.089245   3.087638   3.087586
     7  H    2.253141   2.253144   1.089244   3.087621   3.087594
                    6          7
     6  H    0.000000
     7  H    1.822584   0.000000
 Stoichiometry    C3H4
 Framework group  C1[X(C3H4)]
 Deg. of freedom    15
 Full point group                 C1      NOp   1
 Largest Abelian subgroup         C1      NOp   1
 Largest concise Abelian subgroup C1      NOp   1
                         Standard orientation:                         
 ---------------------------------------------------------------------
 Center     Atomic      Atomic             Coordinates (Angstroms)
 Number     Number       Type             X           Y           Z
 ---------------------------------------------------------------------
      1          6           0        0.500362    0.643243    0.000009
      2          6           0        0.500366   -0.643245   -0.000022
      3          6           0       -0.860643    0.000007    0.000011
      4          1           0        1.037103    1.575124    0.000082
      5          1           0        1.036988   -1.575190   -0.000112
      6          1           0       -1.457317    0.000063   -0.911271
      7          1           0       -1.457284   -0.000024    0.911313
 ---------------------------------------------------------------------
 Rotational constants (GHZ):          30.4348531          21.9709104          13.9377784
 Standard basis: def2TZVP (5D, 7F)
 There are   132 symmetry adapted cartesian basis functions of A   symmetry.
 There are   117 symmetry adapted basis functions of A   symmetry.
   117 basis functions,   185 primitive gaussians,   132 cartesian basis functions
    11 alpha electrons       11 beta electrons
       nuclear repulsion energy        63.9904763888 Hartrees.
 NAtoms=    7 NActive=    7 NUniq=    7 SFac= 1.00D+00 NAtFMM=   60 NAOKFM=F Big=F
 Integral buffers will be    131072 words long.
 Raffenetti 2 integral format.
 Two-electron integral symmetry is turned on.
 One-electron integrals computed using PRISM.
   1 Symmetry operations used in ECPInt.
 ECPInt:  NShTT=    1225 NPrTT=    3648 LenC2=    1224 LenP2D=    3297.
 LDataN:  DoStor=T MaxTD1= 6 Len=  172
 NBasis=   117 RedAO= T EigKep=  8.74D-05  NBF=   117
 NBsUse=   117 1.00D-06 EigRej= -1.00D+00 NBFU=   117
 Initial guess from the checkpoint file:  "/tmp/Gau-3073412.chk"
 B after Tr=     0.000000   -0.000000   -0.000000
         Rot=    1.000000   -0.000000   -0.000000   -0.000012 Ang=  -0.00 deg.
 Keep R1 ints in memory in canonical form, NReq=39185764.
 Requested convergence on RMS density matrix=1.00D-08 within 128 cycles.
 Requested convergence on MAX density matrix=1.00D-06.
 Requested convergence on             energy=1.00D-06.
 No special actions if energy rises.
 SCF Done:  E(RB3LYP) =  -116.667245431     A.U. after    7 cycles
            NFock=  7  Conv=0.63D-08     -V/T= 2.0055
   1 Symmetry operations used in ECPInt.
 ECPInt:  NShTT=    1225 NPrTT=    3648 LenC2=    1224 LenP2D=    3297.
 LDataN:  DoStor=T MaxTD1= 7 Len=  274
 Calling FoFJK, ICntrl=      2127 FMM=F ISym2X=0 I1Cent= 0 IOpClX= 0 NMat=1 NMatS=1 NMatT=0.
 ***** Axes restored to original set *****
 -------------------------------------------------------------------
 Center     Atomic                   Forces (Hartrees/Bohr)
 Number     Number              X              Y              Z
 -------------------------------------------------------------------
      1        6           0.000346791    0.000859142   -0.000005615
      2        6           0.000364421   -0.000861988    0.000006330
      3        6           0.000116012    0.000002230   -0.000000542
      4        1          -0.000280148   -0.000354083    0.000001979
      5        1          -0.000287408    0.000355762   -0.000002071
      6        1          -0.000130299   -0.000001271   -0.000027415
      7        1          -0.000129368    0.000000208    0.000027334
 -------------------------------------------------------------------
 Cartesian Forces:  Max     0.000861988 RMS     0.000323375

 GradGradGradGradGradGradGradGradGradGradGradGradGradGradGradGradGradGrad
 Berny optimization.
 Using GEDIIS/GDIIS optimizer.
 FormGI is forming the generalized inverse of G from B-inverse, IUseBI=4.
 Internal  Forces:  Max     0.000465960 RMS     0.000213645
 Search for a local minimum.
 Step number   3 out of a maximum of   31
 All quantities printed in internal units (Hartrees-Bohrs-Radians)
 Mixed Optimization -- En-DIIS/RFO-DIIS
 Swapping is turned off.
 Update second derivatives using D2CorX and points    1    2    3
 DE= -1.40D-05 DEPred=-9.26D-06 R= 1.52D+00
 TightC=F SS=  1.41D+00  RLast= 1.09D-02 DXNew= 5.0454D-01 3.2805D-02
 Trust test= 1.52D+00 RLast= 1.09D-02 DXMaxT set to 3.00D-01
 ITU=  1  1  0
     Eigenvalues ---    0.00764   0.01987   0.03721   0.06430   0.07121
     Eigenvalues ---    0.13765   0.16000   0.16000   0.28817   0.31674
     Eigenvalues ---    0.35383   0.35642   0.38322   0.40287   0.64479
 En-DIIS/RFO-DIIS/Sim-DIIS IScMMF=       -3 using points:     3    2
 RFO step:  Lambda=-1.11022083D-05.
 DidBck=F Rises=F RFO-DIIS coefs:    2.11312   -1.11312
 Iteration  1 RMS(Cart)=  0.00318399 RMS(Int)=  0.00001125
 Iteration  2 RMS(Cart)=  0.00001078 RMS(Int)=  0.00000031
 Iteration  3 RMS(Cart)=  0.00000000 RMS(Int)=  0.00000031
 Variable       Old X    -DE/DX   Delta X   Delta X   Delta X     New X
                                 (Linear)    (Quad)   (Total)
    R1        2.43111   0.00034   0.00076  -0.00006   0.00070   2.43181
    R2        2.84470   0.00001   0.00050  -0.00028   0.00022   2.84493
    R3        2.03222  -0.00017   0.00062  -0.00094  -0.00032   2.03190
    R4        2.84472   0.00000   0.00049  -0.00029   0.00020   2.84492
    R5        2.03221  -0.00016   0.00062  -0.00093  -0.00031   2.03190
    R6        2.05837  -0.00009  -0.00068   0.00027  -0.00040   2.05797
    R7        2.05837  -0.00009  -0.00069   0.00029  -0.00040   2.05797
    A1        2.61902  -0.00039  -0.00574  -0.00019  -0.00593   2.61309
    A2        2.53487   0.00046   0.00582   0.00022   0.00604   2.54091
    A3        2.61915  -0.00040  -0.00584  -0.00020  -0.00604   2.61312
    A4        2.53475   0.00047   0.00590   0.00023   0.00613   2.54088
    A5        2.08890  -0.00006  -0.00099   0.00035  -0.00065   2.08826
    A6        2.08891  -0.00006  -0.00095   0.00027  -0.00068   2.08824
    A7        2.08893  -0.00006  -0.00094   0.00023  -0.00071   2.08822
    A8        2.08890  -0.00006  -0.00096   0.00030  -0.00066   2.08824
    A9        1.98220   0.00010   0.00216  -0.00068   0.00149   1.98368
    D1       -0.00022   0.00000   0.00008   0.00004   0.00012  -0.00010
    D2        1.29806  -0.00001   0.00049  -0.00010   0.00039   1.29845
    D3       -1.29792   0.00001  -0.00062   0.00023  -0.00039  -1.29831
    D4       -1.29793   0.00001  -0.00066   0.00030  -0.00036  -1.29829
    D5        1.29809  -0.00001   0.00054  -0.00021   0.00032   1.29841
         Item               Value     Threshold  Converged?
 Maximum Force            0.000466     0.000450     NO 
 RMS     Force            0.000214     0.000300     YES
 Maximum Displacement     0.007020     0.001800     NO 
 RMS     Displacement     0.003185     0.001200     NO 
 Predicted change in Energy=-5.551633D-06
 GradGradGradGradGradGradGradGradGradGradGradGradGradGradGradGradGradGrad

                          Input orientation:                          
 ---------------------------------------------------------------------
 Center     Atomic      Atomic             Coordinates (Angstroms)
 Number     Number       Type             X           Y           Z
 ---------------------------------------------------------------------
      1          6           0       -0.472884    0.643438   -0.000037
      2          6           0       -0.472980   -0.643421    0.000026
      3          6           0        0.888111   -0.000094   -0.000027
      4          1           0       -1.014992    1.572014   -0.000101
      5          1           0       -1.015203   -1.571928    0.000107
      6          1           0        1.483987   -0.000134    0.911522
      7          1           0        1.483961   -0.000175   -0.911590
 ---------------------------------------------------------------------
                    Distance matrix (angstroms):
                    1          2          3          4          5
     1  C    0.000000
     2  C    1.286859   0.000000
     3  C    1.505470   1.505469   0.000000
     4  H    1.075237   2.280774   2.468466   0.000000
     5  H    2.280781   1.075236   2.468454   3.143943   0.000000
     6  H    2.252658   2.252634   1.089031   3.089919   3.089848
     7  H    2.252645   2.252649   1.089030   3.089880   3.089890
                    6          7
     6  H    0.000000
     7  H    1.823112   0.000000
 Stoichiometry    C3H4
 Framework group  C1[X(C3H4)]
 Deg. of freedom    15
 Full point group                 C1      NOp   1
 Largest Abelian subgroup         C1      NOp   1
 Largest concise Abelian subgroup C1      NOp   1
                         Standard orientation:                         
 ---------------------------------------------------------------------
 Center     Atomic      Atomic             Coordinates (Angstroms)
 Number     Number       Type             X           Y           Z
 ---------------------------------------------------------------------
      1          6           0        0.499820    0.643422    0.000024
      2          6           0        0.499793   -0.643438   -0.000039
      3          6           0       -0.861236    0.000019    0.000014
      4          1           0        1.042016    1.571946    0.000088
      5          1           0        1.041928   -1.571997   -0.000120
      6          1           0       -1.457112    0.000036   -0.911535
      7          1           0       -1.457087   -0.000005    0.911577
 ---------------------------------------------------------------------
 Rotational constants (GHZ):          30.4596126          21.9520898          13.9361315
 Standard basis: def2TZVP (5D, 7F)
 There are   132 symmetry adapted cartesian basis functions of A   symmetry.
 There are   117 symmetry adapted basis functions of A   symmetry.
   117 basis functions,   185 primitive gaussians,   132 cartesian basis functions
    11 alpha electrons       11 beta electrons
       nuclear repulsion energy        63.9870393411 Hartrees.
 NAtoms=    7 NActive=    7 NUniq=    7 SFac= 1.00D+00 NAtFMM=   60 NAOKFM=F Big=F
 Integral buffers will be    131072 words long.
 Raffenetti 2 integral format.
 Two-electron integral symmetry is turned on.
 One-electron integrals computed using PRISM.
   1 Symmetry operations used in ECPInt.
 ECPInt:  NShTT=    1225 NPrTT=    3648 LenC2=    1224 LenP2D=    3297.
 LDataN:  DoStor=T MaxTD1= 6 Len=  172
 NBasis=   117 RedAO= T EigKep=  8.86D-05  NBF=   117
 NBsUse=   117 1.00D-06 EigRej= -1.00D+00 NBFU=   117
 Initial guess from the checkpoint file:  "/tmp/Gau-3073412.chk"
 B after Tr=     0.000000   -0.000000    0.000000
         Rot=    1.000000   -0.000004   -0.000001    0.000003 Ang=  -0.00 deg.
 Keep R1 ints in memory in canonical form, NReq=39185764.
 Requested convergence on RMS density matrix=1.00D-08 within 128 cycles.
 Requested convergence on MAX density matrix=1.00D-06.
 Requested convergence on             energy=1.00D-06.
 No special actions if energy rises.
 SCF Done:  E(RB3LYP) =  -116.667251081     A.U. after    7 cycles
            NFock=  7  Conv=0.37D-08     -V/T= 2.0055
   1 Symmetry operations used in ECPInt.
 ECPInt:  NShTT=    1225 NPrTT=    3648 LenC2=    1224 LenP2D=    3297.
 LDataN:  DoStor=T MaxTD1= 7 Len=  274
 Calling FoFJK, ICntrl=      2127 FMM=F ISym2X=0 I1Cent= 0 IOpClX= 0 NMat=1 NMatS=1 NMatT=0.
 ***** Axes restored to original set *****
 -------------------------------------------------------------------
 Center     Atomic                   Forces (Hartrees/Bohr)
 Number     Number              X              Y              Z
 -------------------------------------------------------------------
      1        6           0.000047464    0.000045201   -0.000000550
      2        6           0.000048401   -0.000046283    0.000000314
      3        6          -0.000208855   -0.000001548    0.000000931
      4        1           0.000003587   -0.000033186    0.000001326
      5        1           0.000002024    0.000033664   -0.000001307
      6        1           0.000053612    0.000003038   -0.000009140
      7        1           0.000053766   -0.000000887    0.000008427
 -------------------------------------------------------------------
 Cartesian Forces:  Max     0.000208855 RMS     0.000053714

 GradGradGradGradGradGradGradGradGradGradGradGradGradGradGradGradGradGrad
 Berny optimization.
 Using GEDIIS/GDIIS optimizer.
 FormGI is forming the generalized inverse of G from B-inverse, IUseBI=4.
 Internal  Forces:  Max     0.000051208 RMS     0.000026503
 Search for a local minimum.
 Step number   4 out of a maximum of   31
 All quantities printed in internal units (Hartrees-Bohrs-Radians)
 Mixed Optimization -- En-DIIS/RFO-DIIS
 Swapping is turned off.
 Update second derivatives using D2CorX and points    1    2    3    4
 DE= -5.65D-06 DEPred=-5.55D-06 R= 1.02D+00
 TightC=F SS=  1.41D+00  RLast= 1.23D-02 DXNew= 5.0454D-01 3.6914D-02
 Trust test= 1.02D+00 RLast= 1.23D-02 DXMaxT set to 3.00D-01
 ITU=  1  1  1  0
     Eigenvalues ---    0.00764   0.01968   0.03722   0.06493   0.06995
     Eigenvalues ---    0.13850   0.16000   0.16000   0.28819   0.31664
     Eigenvalues ---    0.35383   0.35880   0.38321   0.38476   0.64688
 En-DIIS/RFO-DIIS/Sim-DIIS IScMMF=       -3 using points:     4    3    2
 RFO step:  Lambda=-7.35814473D-08.
 DIIS inversion failure, remove point   3.
 RFO-DIIS uses    2 points instead of    3
 DidBck=F Rises=F RFO-DIIS coefs:    1.02084   -0.02084    0.00000
 Iteration  1 RMS(Cart)=  0.00012027 RMS(Int)=  0.00000002
 Iteration  2 RMS(Cart)=  0.00000001 RMS(Int)=  0.00000001
 Variable       Old X    -DE/DX   Delta X   Delta X   Delta X     New X
                                 (Linear)    (Quad)   (Total)
    R1        2.43181   0.00002   0.00001   0.00005   0.00006   2.43187
    R2        2.84493  -0.00005   0.00000  -0.00017  -0.00017   2.84476
    R3        2.03190  -0.00003  -0.00001  -0.00007  -0.00008   2.03183
    R4        2.84492  -0.00005   0.00000  -0.00017  -0.00016   2.84476
    R5        2.03190  -0.00003  -0.00001  -0.00007  -0.00008   2.03183
    R6        2.05797   0.00002  -0.00001   0.00006   0.00006   2.05803
    R7        2.05797   0.00002  -0.00001   0.00007   0.00006   2.05803
    A1        2.61309  -0.00001  -0.00012  -0.00003  -0.00015   2.61294
    A2        2.54091   0.00002   0.00013   0.00006   0.00019   2.54110
    A3        2.61312  -0.00001  -0.00013  -0.00004  -0.00016   2.61295
    A4        2.54088   0.00002   0.00013   0.00007   0.00020   2.54108
    A5        2.08826   0.00002  -0.00001   0.00012   0.00011   2.08837
    A6        2.08824   0.00002  -0.00001   0.00016   0.00015   2.08839
    A7        2.08822   0.00002  -0.00001   0.00019   0.00018   2.08839
    A8        2.08824   0.00002  -0.00001   0.00015   0.00013   2.08838
    A9        1.98368  -0.00005   0.00003  -0.00038  -0.00035   1.98333
    D1       -0.00010  -0.00000   0.00000   0.00002   0.00002  -0.00008
    D2        1.29845  -0.00002   0.00001  -0.00021  -0.00020   1.29825
    D3       -1.29831   0.00002  -0.00001   0.00010   0.00009  -1.29822
    D4       -1.29829   0.00002  -0.00001   0.00005   0.00005  -1.29824
    D5        1.29841  -0.00002   0.00001  -0.00015  -0.00015   1.29827
         Item               Value     Threshold  Converged?
 Maximum Force            0.000051     0.000450     YES
 RMS     Force            0.000027     0.000300     YES
 Maximum Displacement     0.000201     0.001800     YES
 RMS     Displacement     0.000120     0.001200     YES
 Predicted change in Energy=-3.679192D-08
 Optimization completed.
    -- Stationary point found.
                           ----------------------------
                           !   Optimized Parameters   !
                           ! (Angstroms and Degrees)  !
 --------------------------                            --------------------------
 ! Name  Definition              Value          Derivative Info.                !
 --------------------------------------------------------------------------------
 ! R1    R(1,2)                  1.2869         -DE/DX =    0.0                 !
 ! R2    R(1,3)                  1.5055         -DE/DX =   -0.0001              !
 ! R3    R(1,4)                  1.0752         -DE/DX =    0.0                 !
 ! R4    R(2,3)                  1.5055         -DE/DX =    0.0                 !
 ! R5    R(2,5)                  1.0752         -DE/DX =    0.0                 !
 ! R6    R(3,6)                  1.089          -DE/DX =    0.0                 !
 ! R7    R(3,7)                  1.089          -DE/DX =    0.0                 !
 ! A1    A(2,1,4)              149.7191         -DE/DX =    0.0                 !
 ! A2    A(3,1,4)              145.5833         -DE/DX =    0.0                 !
 ! A3    A(1,2,5)              149.7205         -DE/DX =    0.0                 !
 ! A4    A(3,2,5)              145.5818         -DE/DX =    0.0                 !
 ! A5    A(1,3,6)              119.6482         -DE/DX =    0.0                 !
 ! A6    A(1,3,7)              119.6472         -DE/DX =    0.0                 !
 ! A7    A(2,3,6)              119.6462         -DE/DX =    0.0                 !
 ! A8    A(2,3,7)              119.6476         -DE/DX =    0.0                 !
 ! A9    A(6,3,7)              113.6565         -DE/DX =    0.0                 !
 ! D1    D(4,1,2,5)             -0.0056         -DE/DX =    0.0                 !
 ! D2    D(4,1,3,6)             74.3955         -DE/DX =    0.0                 !
 ! D3    D(4,1,3,7)            -74.3878         -DE/DX =    0.0                 !
 ! D4    D(5,2,3,6)            -74.3863         -DE/DX =    0.0                 !
 ! D5    D(5,2,3,7)             74.3937         -DE/DX =    0.0                 !
 --------------------------------------------------------------------------------
 GradGradGradGradGradGradGradGradGradGradGradGradGradGradGradGradGradGrad

                          Input orientation:                          
 ---------------------------------------------------------------------
 Center     Atomic      Atomic             Coordinates (Angstroms)
 Number     Number       Type             X           Y           Z
 ---------------------------------------------------------------------
      1          6           0       -0.472884    0.643438   -0.000037
      2          6           0       -0.472980   -0.643421    0.000026
      3          6           0        0.888111   -0.000094   -0.000027
      4          1           0       -1.014992    1.572014   -0.000101
      5          1           0       -1.015203   -1.571928    0.000107
      6          1           0        1.483987   -0.000134    0.911522
      7          1           0        1.483961   -0.000175   -0.911590
 ---------------------------------------------------------------------
                    Distance matrix (angstroms):
                    1          2          3          4          5
     1  C    0.000000
     2  C    1.286859   0.000000
     3  C    1.505470   1.505469   0.000000
     4  H    1.075237   2.280774   2.468466   0.000000
     5  H    2.280781   1.075236   2.468454   3.143943   0.000000
     6  H    2.252658   2.252634   1.089031   3.089919   3.089848
     7  H    2.252645   2.252649   1.089030   3.089880   3.089890
                    6          7
     6  H    0.000000
     7  H    1.823112   0.000000
 Stoichiometry    C3H4
 Framework group  C1[X(C3H4)]
 Deg. of freedom    15
 Full point group                 C1      NOp   1
 Largest Abelian subgroup         C1      NOp   1
 Largest concise Abelian subgroup C1      NOp   1
                         Standard orientation:                         
 ---------------------------------------------------------------------
 Center     Atomic      Atomic             Coordinates (Angstroms)
 Number     Number       Type             X           Y           Z
 ---------------------------------------------------------------------
      1          6           0        0.499820    0.643422    0.000024
      2          6           0        0.499793   -0.643438   -0.000039
      3          6           0       -0.861236    0.000019    0.000014
      4          1           0        1.042016    1.571946    0.000088
      5          1           0        1.041928   -1.571997   -0.000120
      6          1           0       -1.457112    0.000036   -0.911535
      7          1           0       -1.457087   -0.000005    0.911577
 ---------------------------------------------------------------------
 Rotational constants (GHZ):          30.4596126          21.9520898          13.9361315

 **********************************************************************

            Population analysis using the SCF Density.

 **********************************************************************

 Orbital symmetries:
       Occupied  (A) (A) (A) (A) (A) (A) (A) (A) (A) (A) (A)
       Virtual   (A) (A) (A) (A) (A) (A) (A) (A) (A) (A) (A) (A)
                 (A) (A) (A) (A) (A) (A) (A) (A) (A) (A) (A) (A)
                 (A) (A) (A) (A) (A) (A) (A) (A) (A) (A) (A) (A)
                 (A) (A) (A) (A) (A) (A) (A) (A) (A) (A) (A) (A)
                 (A) (A) (A) (A) (A) (A) (A) (A) (A) (A) (A) (A)
                 (A) (A) (A) (A) (A) (A) (A) (A) (A) (A) (A) (A)
                 (A) (A) (A) (A) (A) (A) (A) (A) (A) (A) (A) (A)
                 (A) (A) (A) (A) (A) (A) (A) (A) (A) (A) (A) (A)
                 (A) (A) (A) (A) (A) (A) (A) (A) (A) (A)
 The electronic state is 1-A.
 Alpha  occ. eigenvalues --  -10.18841 -10.18711 -10.18359  -0.87437  -0.60345
 Alpha  occ. eigenvalues --   -0.56778  -0.50909  -0.43975  -0.35464  -0.30034
 Alpha  occ. eigenvalues --   -0.25908
 Alpha virt. eigenvalues --   -0.00492   0.06593   0.07179   0.08410   0.11238
 Alpha virt. eigenvalues --    0.13707   0.13770   0.18018   0.19229   0.21391
 Alpha virt. eigenvalues --    0.23391   0.29852   0.30338   0.30739   0.33170
 Alpha virt. eigenvalues --    0.37489   0.38556   0.41568   0.41637   0.45333
 Alpha virt. eigenvalues --    0.46076   0.52565   0.54532   0.64469   0.71112
 Alpha virt. eigenvalues --    0.71230   0.83253   0.88417   0.88860   0.94624
 Alpha virt. eigenvalues --    0.98574   1.01183   1.02360   1.05389   1.07981
 Alpha virt. eigenvalues --    1.08161   1.10899   1.15859   1.30721   1.43227
 Alpha virt. eigenvalues --    1.45279   1.46043   1.47278   1.57616   1.58515
 Alpha virt. eigenvalues --    1.65380   1.71039   1.77802   1.86071   1.87938
 Alpha virt. eigenvalues --    1.95855   1.97002   2.02017   2.02927   2.12503
 Alpha virt. eigenvalues --    2.18391   2.25512   2.30182   2.34922   2.40255
 Alpha virt. eigenvalues --    2.48067   2.52468   2.57188   2.60125   2.62316
 Alpha virt. eigenvalues --    2.65997   2.67500   2.69129   2.70245   2.75695
 Alpha virt. eigenvalues --    2.84446   2.88873   2.95463   2.97090   3.01968
 Alpha virt. eigenvalues --    3.04870   3.06662   3.11678   3.25068   3.25406
 Alpha virt. eigenvalues --    3.26135   3.32861   3.36753   3.40472   3.51633
 Alpha virt. eigenvalues --    3.57193   3.58190   3.61032   3.72549   3.96685
 Alpha virt. eigenvalues --    4.03261   4.07825   4.12368   4.20827   4.22832
 Alpha virt. eigenvalues --    4.30749   4.43523   4.43711   4.44472   4.66253
 Alpha virt. eigenvalues --    4.92969   4.99364   5.25077  22.13759  22.28758
 Alpha virt. eigenvalues --   22.51879
          Condensed to atoms (all electrons):
               1          2          3          4          5          6
     1  C    4.986796   0.588630   0.250406   0.383667  -0.008651  -0.042295
     2  C    0.588630   4.986796   0.250404  -0.008653   0.383667  -0.042308
     3  C    0.250406   0.250404   4.938542  -0.028390  -0.028392   0.431812
     4  H    0.383667  -0.008653  -0.028390   0.509341  -0.002160  -0.000518
     5  H   -0.008651   0.383667  -0.028392  -0.002160   0.509340  -0.000518
     6  H   -0.042295  -0.042308   0.431812  -0.000518  -0.000518   0.617297
     7  H   -0.042305  -0.042297   0.431812  -0.000518  -0.000518  -0.055578
               7
     1  C   -0.042305
     2  C   -0.042297
     3  C    0.431812
     4  H   -0.000518
     5  H   -0.000518
     6  H   -0.055578
     7  H    0.617296
 Mulliken charges:
               1
     1  C   -0.116247
     2  C   -0.116238
     3  C   -0.246194
     4  H    0.147231
     5  H    0.147232
     6  H    0.092108
     7  H    0.092108
 Sum of Mulliken charges =  -0.00000
 Mulliken charges with hydrogens summed into heavy atoms:
               1
     1  C    0.030984
     2  C    0.030993
     3  C   -0.061978
 Electronic spatial extent (au):  <R**2>=            131.9479
 Charge=             -0.0000 electrons
 Dipole moment (field-independent basis, Debye):
    X=              0.4832    Y=             -0.0000    Z=             -0.0000  Tot=              0.4832
 Quadrupole moment (field-independent basis, Debye-Ang):
   XX=            -18.7368   YY=            -16.9883   ZZ=            -19.5663
   XY=              0.0001   XZ=             -0.0000   YZ=              0.0003
 Traceless Quadrupole moment (field-independent basis, Debye-Ang):
   XX=             -0.3063   YY=              1.4422   ZZ=             -1.1358
   XY=              0.0001   XZ=             -0.0000   YZ=              0.0003
 Octapole moment (field-independent basis, Debye-Ang**2):
  XXX=              0.3299  YYY=             -0.0005  ZZZ=              0.0001  XYY=              4.8498
  XXY=              0.0002  XXZ=             -0.0000  XZZ=             -1.5726  YZZ=             -0.0000
  YYZ=             -0.0001  XYZ=              0.0004
 Hexadecapole moment (field-independent basis, Debye-Ang**3):
 XXXX=            -91.0464 YYYY=            -59.6580 ZZZZ=            -29.8283 XXXY=              0.0005
 XXXZ=              0.0004 YYYX=              0.0001 YYYZ=             -0.0004 ZZZX=              0.0005
 ZZZY=             -0.0012 XXYY=            -23.2495 XXZZ=            -20.0411 YYZZ=            -17.0299
 XXYZ=              0.0000 YYXZ=              0.0001 ZZXY=              0.0000
 N-N= 6.398703934108D+01 E-N=-3.980688539519D+02  KE= 1.160245759995D+02
 Unable to Open any file for archive entry.
 1\1\GINC-NODE09\FOpt\RB3LYP\def2TZVP\C3H4\SVSS\06-Sep-2022\0\\# B3LYP/
 def2tzvp opt freq\\Do1_crest_conf_1\\0,1\C,-0.4728840557,0.6434383088,
 -0.0000369728\C,-0.4729795167,-0.6434209842,0.0000264239\C,0.888110526
 6,-0.0000940384,-0.0000265915\H,-1.0149916857,1.5720141752,-0.00010089
 55\H,-1.0152029546,-1.571928471,0.0001066944\H,1.4839867363,-0.0001340
 965,0.9115215316\H,1.4839609499,-0.0001748938,-0.9115901901\\Version=A
 S64L-G16RevC.01\State=1-A\HF=-116.6672511\RMSD=3.670e-09\RMSF=5.371e-0
 5\Dipole=-0.1901071,0.0000001,0.0000025\Quadrupole=-0.2277602,1.072212
 4,-0.8444522,0.000047,-0.0000129,-0.0001951\PG=C01 [X(C3H4)]\\@
 The archive entry for this job was punched.


 Spring appears, and we are once more children.
                                  -- Anonymous
 Job cpu time:       0 days  0 hours  1 minutes 51.3 seconds.
 Elapsed time:       0 days  0 hours  0 minutes  9.0 seconds.
 File lengths (MBytes):  RWF=     10 Int=      0 D2E=      0 Chk=      2 Scr=      1
 Normal termination of Gaussian 16 at Tue Sep  6 22:56:46 2022.
 Link1:  Proceeding to internal job step number  2.
 --------------------------------------------------------------------
 #N Geom=AllCheck Guess=TCheck SCRF=Check GenChk RB3LYP/def2TZVP Freq
 --------------------------------------------------------------------
 1/10=4,29=7,30=1,38=1,40=1/1,3;
 2/12=2,40=1/2;
 3/5=44,7=101,11=2,14=-4,25=1,30=1,70=2,71=2,74=-5,116=1,140=1/1,2,3;
 4/5=101/1;
 5/5=2,38=6,98=1/2;
 8/6=4,10=90,11=11/1;
 11/6=1,8=1,9=11,15=111,16=1/1,2,10;
 10/6=1/2;
 6/7=2,8=2,9=2,10=2,28=1/1;
 7/8=1,10=1,25=1/1,2,3,16;
 1/10=4,30=1/3;
 99//99;
 Structure from the checkpoint file:  "/tmp/Gau-3073412.chk"
 ----------------
 Do1_crest_conf_1
 ----------------
 Charge =  0 Multiplicity = 1
 Redundant internal coordinates found in file.  (old form).
 C,0,-0.4728840557,0.6434383088,-0.0000369728
 C,0,-0.4729795167,-0.6434209842,0.0000264239
 C,0,0.8881105266,-0.0000940384,-0.0000265915
 H,0,-1.0149916857,1.5720141752,-0.0001008955
 H,0,-1.0152029546,-1.571928471,0.0001066944
 H,0,1.4839867363,-0.0001340965,0.9115215316
 H,0,1.4839609499,-0.0001748938,-0.9115901901
 Recover connectivity data from disk.

 GradGradGradGradGradGradGradGradGradGradGradGradGradGradGradGradGradGrad
 Berny optimization.
 Initialization pass.
                           ----------------------------
                           !    Initial Parameters    !
                           ! (Angstroms and Degrees)  !
 --------------------------                            --------------------------
 ! Name  Definition              Value          Derivative Info.                !
 --------------------------------------------------------------------------------
 ! R1    R(1,2)                  1.2869         calculate D2E/DX2 analytically  !
 ! R2    R(1,3)                  1.5055         calculate D2E/DX2 analytically  !
 ! R3    R(1,4)                  1.0752         calculate D2E/DX2 analytically  !
 ! R4    R(2,3)                  1.5055         calculate D2E/DX2 analytically  !
 ! R5    R(2,5)                  1.0752         calculate D2E/DX2 analytically  !
 ! R6    R(3,6)                  1.089          calculate D2E/DX2 analytically  !
 ! R7    R(3,7)                  1.089          calculate D2E/DX2 analytically  !
 ! A1    A(2,1,4)              149.7191         calculate D2E/DX2 analytically  !
 ! A2    A(3,1,4)              145.5833         calculate D2E/DX2 analytically  !
 ! A3    A(1,2,5)              149.7205         calculate D2E/DX2 analytically  !
 ! A4    A(3,2,5)              145.5818         calculate D2E/DX2 analytically  !
 ! A5    A(1,3,6)              119.6482         calculate D2E/DX2 analytically  !
 ! A6    A(1,3,7)              119.6472         calculate D2E/DX2 analytically  !
 ! A7    A(2,3,6)              119.6462         calculate D2E/DX2 analytically  !
 ! A8    A(2,3,7)              119.6476         calculate D2E/DX2 analytically  !
 ! A9    A(6,3,7)              113.6565         calculate D2E/DX2 analytically  !
 ! D1    D(4,1,2,5)             -0.0056         calculate D2E/DX2 analytically  !
 ! D2    D(4,1,3,6)             74.3955         calculate D2E/DX2 analytically  !
 ! D3    D(4,1,3,7)            -74.3878         calculate D2E/DX2 analytically  !
 ! D4    D(5,2,3,6)            -74.3863         calculate D2E/DX2 analytically  !
 ! D5    D(5,2,3,7)             74.3937         calculate D2E/DX2 analytically  !
 --------------------------------------------------------------------------------
 Trust Radius=3.00D-01 FncErr=1.00D-07 GrdErr=1.00D-07 EigMax=2.50D+02 EigMin=1.00D-04
 Number of steps in this run=      2 maximum allowed number of steps=      2.
 GradGradGradGradGradGradGradGradGradGradGradGradGradGradGradGradGradGrad

                          Input orientation:                          
 ---------------------------------------------------------------------
 Center     Atomic      Atomic             Coordinates (Angstroms)
 Number     Number       Type             X           Y           Z
 ---------------------------------------------------------------------
      1          6           0       -0.472884    0.643438   -0.000037
      2          6           0       -0.472980   -0.643421    0.000026
      3          6           0        0.888111   -0.000094   -0.000027
      4          1           0       -1.014992    1.572014   -0.000101
      5          1           0       -1.015203   -1.571928    0.000107
      6          1           0        1.483987   -0.000134    0.911522
      7          1           0        1.483961   -0.000175   -0.911590
 ---------------------------------------------------------------------
                    Distance matrix (angstroms):
                    1          2          3          4          5
     1  C    0.000000
     2  C    1.286859   0.000000
     3  C    1.505470   1.505469   0.000000
     4  H    1.075237   2.280774   2.468466   0.000000
     5  H    2.280781   1.075236   2.468454   3.143943   0.000000
     6  H    2.252658   2.252634   1.089031   3.089919   3.089848
     7  H    2.252645   2.252649   1.089030   3.089880   3.089890
                    6          7
     6  H    0.000000
     7  H    1.823112   0.000000
 Stoichiometry    C3H4
 Framework group  C1[X(C3H4)]
 Deg. of freedom    15
 Full point group                 C1      NOp   1
 Largest Abelian subgroup         C1      NOp   1
 Largest concise Abelian subgroup C1      NOp   1
                         Standard orientation:                         
 ---------------------------------------------------------------------
 Center     Atomic      Atomic             Coordinates (Angstroms)
 Number     Number       Type             X           Y           Z
 ---------------------------------------------------------------------
      1          6           0        0.499820    0.643422    0.000024
      2          6           0        0.499793   -0.643438   -0.000039
      3          6           0       -0.861236    0.000019    0.000014
      4          1           0        1.042016    1.571946    0.000088
      5          1           0        1.041928   -1.571997   -0.000120
      6          1           0       -1.457112    0.000036   -0.911535
      7          1           0       -1.457087   -0.000005    0.911577
 ---------------------------------------------------------------------
 Rotational constants (GHZ):          30.4596126          21.9520898          13.9361315
 Standard basis: def2TZVP (5D, 7F)
 There are   132 symmetry adapted cartesian basis functions of A   symmetry.
 There are   117 symmetry adapted basis functions of A   symmetry.
   117 basis functions,   185 primitive gaussians,   132 cartesian basis functions
    11 alpha electrons       11 beta electrons
       nuclear repulsion energy        63.9870393411 Hartrees.
 NAtoms=    7 NActive=    7 NUniq=    7 SFac= 1.00D+00 NAtFMM=   60 NAOKFM=F Big=F
 Integral buffers will be    131072 words long.
 Raffenetti 2 integral format.
 Two-electron integral symmetry is turned on.
 One-electron integrals computed using PRISM.
   1 Symmetry operations used in ECPInt.
 ECPInt:  NShTT=    1225 NPrTT=    3648 LenC2=    1224 LenP2D=    3297.
 LDataN:  DoStor=T MaxTD1= 6 Len=  172
 NBasis=   117 RedAO= T EigKep=  8.86D-05  NBF=   117
 NBsUse=   117 1.00D-06 EigRej= -1.00D+00 NBFU=   117
 Initial guess from the checkpoint file:  "/tmp/Gau-3073412.chk"
 B after Tr=     0.000000   -0.000000    0.000000
         Rot=    1.000000   -0.000000   -0.000000    0.000000 Ang=   0.00 deg.
 Keep R1 ints in memory in canonical form, NReq=39185764.
 Requested convergence on RMS density matrix=1.00D-08 within 128 cycles.
 Requested convergence on MAX density matrix=1.00D-06.
 Requested convergence on             energy=1.00D-06.
 No special actions if energy rises.
 SCF Done:  E(RB3LYP) =  -116.667251081     A.U. after    1 cycles
            NFock=  1  Conv=0.44D-08     -V/T= 2.0055
 DoSCS=F DFT=T ScalE2(SS,OS)=  1.000000  1.000000
 Range of M.O.s used for correlation:     1   117
 NBasis=   117 NAE=    11 NBE=    11 NFC=     0 NFV=     0
 NROrb=    117 NOA=    11 NOB=    11 NVA=   106 NVB=   106

 **** Warning!!: The largest alpha MO coefficient is  0.30619667D+02

   1 Symmetry operations used in ECPInt.
 ECPInt:  NShTT=    1225 NPrTT=    3648 LenC2=    1224 LenP2D=    3297.
 LDataN:  DoStor=T MaxTD1= 7 Len=  274
 Symmetrizing basis deriv contribution to polar:
 IMax=3 JMax=2 DiffMx= 0.00D+00
 G2DrvN: will do     8 centers at a time, making    1 passes.
 Calling FoFCou, ICntrl=  3107 FMM=F I1Cent=   0 AccDes= 0.00D+00.
 End of G2Drv F.D. properties file   721 does not exist.
 End of G2Drv F.D. properties file   722 does not exist.
 End of G2Drv F.D. properties file   788 does not exist.
          IDoAtm=1111111
          Differentiating once with respect to electric field.
                with respect to dipole field.
          Differentiating once with respect to nuclear coordinates.
 Keep R1 ints in memory in canonical form, NReq=39136333.
          There are    24 degrees of freedom in the 1st order CPHF.  IDoFFX=6 NUNeed=     3.
     21 vectors produced by pass  0 Test12= 4.86D-15 4.17D-09 XBig12= 3.73D+01 4.24D+00.
 AX will form    21 AO Fock derivatives at one time.
     21 vectors produced by pass  1 Test12= 4.86D-15 4.17D-09 XBig12= 9.47D+00 1.06D+00.
     21 vectors produced by pass  2 Test12= 4.86D-15 4.17D-09 XBig12= 2.55D-01 1.84D-01.
     21 vectors produced by pass  3 Test12= 4.86D-15 4.17D-09 XBig12= 5.62D-04 5.63D-03.
     21 vectors produced by pass  4 Test12= 4.86D-15 4.17D-09 XBig12= 9.20D-07 2.50D-04.
     14 vectors produced by pass  5 Test12= 4.86D-15 4.17D-09 XBig12= 7.05D-10 7.73D-06.
      4 vectors produced by pass  6 Test12= 4.86D-15 4.17D-09 XBig12= 7.04D-13 2.45D-07.
      1 vectors produced by pass  7 Test12= 4.86D-15 4.17D-09 XBig12= 5.41D-16 6.01D-09.
 InvSVY:  IOpt=1 It=  1 EMax= 2.03D-15
 Solved reduced A of dimension   124 with    24 vectors.
 Isotropic polarizability for W=    0.000000       32.65 Bohr**3.
 End of Minotr F.D. properties file   721 does not exist.
 End of Minotr F.D. properties file   722 does not exist.
 End of Minotr F.D. properties file   788 does not exist.

 **********************************************************************

            Population analysis using the SCF Density.

 **********************************************************************

 Orbital symmetries:
       Occupied  (A) (A) (A) (A) (A) (A) (A) (A) (A) (A) (A)
       Virtual   (A) (A) (A) (A) (A) (A) (A) (A) (A) (A) (A) (A)
                 (A) (A) (A) (A) (A) (A) (A) (A) (A) (A) (A) (A)
                 (A) (A) (A) (A) (A) (A) (A) (A) (A) (A) (A) (A)
                 (A) (A) (A) (A) (A) (A) (A) (A) (A) (A) (A) (A)
                 (A) (A) (A) (A) (A) (A) (A) (A) (A) (A) (A) (A)
                 (A) (A) (A) (A) (A) (A) (A) (A) (A) (A) (A) (A)
                 (A) (A) (A) (A) (A) (A) (A) (A) (A) (A) (A) (A)
                 (A) (A) (A) (A) (A) (A) (A) (A) (A) (A) (A) (A)
                 (A) (A) (A) (A) (A) (A) (A) (A) (A) (A)
 The electronic state is 1-A.
 Alpha  occ. eigenvalues --  -10.18841 -10.18711 -10.18359  -0.87437  -0.60345
 Alpha  occ. eigenvalues --   -0.56778  -0.50909  -0.43975  -0.35464  -0.30034
 Alpha  occ. eigenvalues --   -0.25908
 Alpha virt. eigenvalues --   -0.00492   0.06593   0.07179   0.08410   0.11238
 Alpha virt. eigenvalues --    0.13707   0.13770   0.18018   0.19229   0.21391
 Alpha virt. eigenvalues --    0.23391   0.29852   0.30338   0.30739   0.33170
 Alpha virt. eigenvalues --    0.37489   0.38556   0.41568   0.41637   0.45333
 Alpha virt. eigenvalues --    0.46076   0.52565   0.54532   0.64469   0.71112
 Alpha virt. eigenvalues --    0.71230   0.83253   0.88417   0.88860   0.94624
 Alpha virt. eigenvalues --    0.98574   1.01183   1.02360   1.05389   1.07981
 Alpha virt. eigenvalues --    1.08161   1.10899   1.15859   1.30721   1.43227
 Alpha virt. eigenvalues --    1.45279   1.46043   1.47278   1.57616   1.58515
 Alpha virt. eigenvalues --    1.65380   1.71039   1.77802   1.86071   1.87938
 Alpha virt. eigenvalues --    1.95855   1.97002   2.02017   2.02927   2.12503
 Alpha virt. eigenvalues --    2.18391   2.25512   2.30182   2.34922   2.40255
 Alpha virt. eigenvalues --    2.48067   2.52468   2.57188   2.60125   2.62316
 Alpha virt. eigenvalues --    2.65997   2.67500   2.69129   2.70245   2.75695
 Alpha virt. eigenvalues --    2.84446   2.88873   2.95463   2.97090   3.01968
 Alpha virt. eigenvalues --    3.04870   3.06662   3.11678   3.25068   3.25406
 Alpha virt. eigenvalues --    3.26135   3.32861   3.36753   3.40472   3.51633
 Alpha virt. eigenvalues --    3.57193   3.58190   3.61032   3.72549   3.96685
 Alpha virt. eigenvalues --    4.03261   4.07825   4.12368   4.20827   4.22832
 Alpha virt. eigenvalues --    4.30749   4.43523   4.43711   4.44472   4.66253
 Alpha virt. eigenvalues --    4.92969   4.99364   5.25077  22.13759  22.28758
 Alpha virt. eigenvalues --   22.51879
          Condensed to atoms (all electrons):
               1          2          3          4          5          6
     1  C    4.986798   0.588630   0.250406   0.383667  -0.008651  -0.042295
     2  C    0.588630   4.986794   0.250404  -0.008653   0.383667  -0.042308
     3  C    0.250406   0.250404   4.938542  -0.028390  -0.028392   0.431812
     4  H    0.383667  -0.008653  -0.028390   0.509341  -0.002160  -0.000518
     5  H   -0.008651   0.383667  -0.028392  -0.002160   0.509340  -0.000518
     6  H   -0.042295  -0.042308   0.431812  -0.000518  -0.000518   0.617297
     7  H   -0.042305  -0.042297   0.431812  -0.000518  -0.000518  -0.055578
               7
     1  C   -0.042305
     2  C   -0.042297
     3  C    0.431812
     4  H   -0.000518
     5  H   -0.000518
     6  H   -0.055578
     7  H    0.617296
 Mulliken charges:
               1
     1  C   -0.116248
     2  C   -0.116237
     3  C   -0.246194
     4  H    0.147231
     5  H    0.147231
     6  H    0.092108
     7  H    0.092108
 Sum of Mulliken charges =  -0.00000
 Mulliken charges with hydrogens summed into heavy atoms:
               1
     1  C    0.030983
     2  C    0.030995
     3  C   -0.061978
 APT charges:
               1
     1  C   -0.119589
     2  C   -0.119592
     3  C    0.118210
     4  H    0.097995
     5  H    0.097996
     6  H   -0.037510
     7  H   -0.037510
 Sum of APT charges =   0.00000
 APT charges with hydrogens summed into heavy atoms:
               1
     1  C   -0.021594
     2  C   -0.021596
     3  C    0.043190
 Electronic spatial extent (au):  <R**2>=            131.9479
 Charge=             -0.0000 electrons
 Dipole moment (field-independent basis, Debye):
    X=              0.4832    Y=             -0.0001    Z=             -0.0000  Tot=              0.4832
 Quadrupole moment (field-independent basis, Debye-Ang):
   XX=            -18.7368   YY=            -16.9883   ZZ=            -19.5663
   XY=              0.0001   XZ=             -0.0000   YZ=              0.0003
 Traceless Quadrupole moment (field-independent basis, Debye-Ang):
   XX=             -0.3063   YY=              1.4422   ZZ=             -1.1358
   XY=              0.0001   XZ=             -0.0000   YZ=              0.0003
 Octapole moment (field-independent basis, Debye-Ang**2):
  XXX=              0.3299  YYY=             -0.0005  ZZZ=              0.0001  XYY=              4.8498
  XXY=              0.0002  XXZ=             -0.0000  XZZ=             -1.5726  YZZ=             -0.0000
  YYZ=             -0.0001  XYZ=              0.0004
 Hexadecapole moment (field-independent basis, Debye-Ang**3):
 XXXX=            -91.0464 YYYY=            -59.6580 ZZZZ=            -29.8283 XXXY=              0.0005
 XXXZ=              0.0004 YYYX=              0.0001 YYYZ=             -0.0004 ZZZX=              0.0005
 ZZZY=             -0.0012 XXYY=            -23.2495 XXZZ=            -20.0411 YYZZ=            -17.0299
 XXYZ=              0.0000 YYXZ=              0.0001 ZZXY=              0.0000
 N-N= 6.398703934108D+01 E-N=-3.980688543495D+02  KE= 1.160245761406D+02
  Exact polarizability:      37.297       0.000      35.626      -0.000       0.001      25.016
 Approx polarizability:      49.758       0.000      58.839      -0.000       0.001      34.819
   1 Symmetry operations used in ECPInt.
 ECPInt:  NShTT=    1225 NPrTT=    3648 LenC2=    1224 LenP2D=    3297.
 LDataN:  DoStor=T MaxTD1= 8 Len=  415
 Calling FoFJK, ICntrl=    100127 FMM=F ISym2X=0 I1Cent= 0 IOpClX= 0 NMat=1 NMatS=1 NMatT=0.
 Full mass-weighted force constant matrix:
 Low frequencies ---   -0.0007    0.0002    0.0002    6.4771    7.2138    7.8430
 Low frequencies ---  601.2241  784.0372  868.7288
 Diagonal vibrational polarizability:
        0.5417283       2.2020357       6.5033548
 Harmonic frequencies (cm**-1), IR intensities (KM/Mole), Raman scattering
 activities (A**4/AMU), depolarization ratios for plane and unpolarized
 incident light, reduced masses (AMU), force constants (mDyne/A),
 and normal coordinates:
                      1                      2                      3
                      A                      A                      A
 Frequencies --    601.2241               784.0372               868.7288
 Red. masses --      1.1243                 2.5772                 1.4252
 Frc consts  --      0.2394                 0.9334                 0.6337
 IR Inten    --     85.1591                15.6472                 0.0000
  Atom  AN      X      Y      Z        X      Y      Z        X      Y      Z
     1   6    -0.00   0.00  -0.07    -0.19  -0.13  -0.00     0.00  -0.00   0.14
     2   6    -0.00   0.00  -0.07     0.19  -0.13  -0.00    -0.00   0.00  -0.14
     3   6     0.00   0.00   0.01     0.00   0.19   0.00    -0.00  -0.00  -0.00
     4   1    -0.00  -0.00   0.69    -0.53   0.06  -0.00     0.00   0.00  -0.69
     5   1     0.00  -0.00   0.69     0.53   0.06  -0.00     0.00  -0.00   0.69
     6   1    -0.10   0.00   0.09     0.00   0.38   0.00    -0.00   0.04   0.00
     7   1     0.10  -0.00   0.09     0.00   0.38   0.00    -0.00  -0.04  -0.00
                      4                      5                      6
                      A                      A                      A
 Frequencies --    922.7551              1016.4404              1037.6867
 Red. masses --      1.1451                 1.0891                 1.5768
 Frc consts  --      0.5745                 0.6629                 1.0004
 IR Inten    --      4.5275                 0.0000                40.4291
  Atom  AN      X      Y      Z        X      Y      Z        X      Y      Z
     1   6     0.01  -0.02  -0.00     0.00  -0.00   0.06    -0.16   0.02   0.00
     2   6     0.01   0.02   0.00     0.00   0.00  -0.06     0.16   0.02  -0.00
     3   6    -0.11   0.00   0.00    -0.00  -0.00  -0.00    -0.00   0.05   0.00
     4   1     0.60  -0.35   0.00    -0.00   0.00   0.11     0.55  -0.38  -0.00
     5   1     0.60   0.35  -0.00    -0.00  -0.00  -0.11    -0.55  -0.38  -0.00
     6   1    -0.11   0.00   0.00    -0.00  -0.70  -0.00     0.00  -0.17  -0.00
     7   1    -0.11   0.00  -0.00     0.00   0.70   0.00    -0.00  -0.17  -0.00
                      7                      8                      9
                      A                      A                      A
 Frequencies --   1073.2255              1114.0281              1150.6002
 Red. masses --      1.3586                 1.2856                 4.3697
 Frc consts  --      0.9220                 0.9400                 3.4084
 IR Inten    --     21.6702                 1.8858                 0.3500
  Atom  AN      X      Y      Z        X      Y      Z        X      Y      Z
     1   6    -0.03   0.03  -0.00    -0.00   0.00   0.05    -0.26   0.04   0.00
     2   6     0.03   0.03  -0.00     0.00   0.00   0.05    -0.26  -0.04  -0.00
     3   6     0.00  -0.17   0.00    -0.00  -0.00  -0.14     0.41   0.00  -0.00
     4   1     0.14  -0.07  -0.00     0.00  -0.00  -0.05     0.37  -0.35  -0.00
     5   1    -0.14  -0.07   0.00    -0.00  -0.00  -0.05     0.37   0.35   0.00
     6   1     0.00   0.68  -0.00    -0.64   0.00   0.27     0.30  -0.00   0.05
     7   1    -0.00   0.68  -0.00     0.64   0.00   0.27     0.30  -0.00  -0.05
                     10                     11                     12
                      A                      A                      A
 Frequencies --   1525.0404              1734.4499              3041.4990
 Red. masses --      1.1134                 4.6569                 1.0466
 Frc consts  --      1.5256                 8.2540                 5.7044
 IR Inten    --      2.0986                16.9416                74.0866
  Atom  AN      X      Y      Z        X      Y      Z        X      Y      Z
     1   6    -0.01  -0.04  -0.00     0.00   0.40   0.00    -0.00   0.00   0.00
     2   6    -0.01   0.04   0.00     0.00  -0.40  -0.00    -0.00  -0.00  -0.00
     3   6    -0.07  -0.00   0.00    -0.09   0.00   0.00    -0.06  -0.00  -0.00
     4   1    -0.02  -0.06  -0.00     0.31   0.39   0.00     0.01   0.01   0.00
     5   1    -0.02   0.06   0.00     0.31  -0.39  -0.00     0.01  -0.01  -0.00
     6   1     0.58   0.00  -0.39     0.21  -0.00  -0.20     0.36  -0.00   0.61
     7   1     0.58  -0.00   0.39     0.21  -0.00   0.20     0.36   0.00  -0.61
                     13                     14                     15
                      A                      A                      A
 Frequencies --   3102.1811              3251.1325              3295.7065
 Red. masses --      1.1173                 1.0841                 1.1447
 Frc consts  --      6.3353                 6.7514                 7.3256
 IR Inten    --     43.7827                 0.1239                 0.0654
  Atom  AN      X      Y      Z        X      Y      Z        X      Y      Z
     1   6     0.00  -0.00   0.00    -0.03  -0.05  -0.00     0.03   0.07   0.00
     2   6    -0.00   0.00   0.00     0.03  -0.05  -0.00     0.03  -0.07  -0.00
     3   6     0.00   0.00  -0.10     0.00  -0.00   0.00    -0.01   0.00   0.00
     4   1     0.00   0.00  -0.00     0.35   0.61   0.00    -0.35  -0.61  -0.00
     5   1    -0.00   0.00  -0.00    -0.35   0.61   0.00    -0.35   0.61   0.00
     6   1     0.38  -0.00   0.59    -0.00   0.00  -0.00     0.00  -0.00   0.00
     7   1    -0.38  -0.00   0.59     0.00   0.00  -0.00     0.00   0.00  -0.00

 -------------------
 - Thermochemistry -
 -------------------
 Temperature   298.150 Kelvin.  Pressure   1.00000 Atm.
 Atom     1 has atomic number  6 and mass  12.00000
 Atom     2 has atomic number  6 and mass  12.00000
 Atom     3 has atomic number  6 and mass  12.00000
 Atom     4 has atomic number  1 and mass   1.00783
 Atom     5 has atomic number  1 and mass   1.00783
 Atom     6 has atomic number  1 and mass   1.00783
 Atom     7 has atomic number  1 and mass   1.00783
 Molecular mass:    40.03130 amu.
 Principal axes and moments of inertia in atomic units:
                           1         2         3
     Eigenvalues --    59.25030  82.21273 129.50087
           X            1.00000   0.00001   0.00002
           Y           -0.00001   1.00000  -0.00006
           Z           -0.00002   0.00006   1.00000
 This molecule is an asymmetric top.
 Rotational symmetry number  1.
 Rotational temperatures (Kelvin)      1.46183     1.05353     0.66883
 Rotational constants (GHZ):          30.45961    21.95209    13.93613
 Zero-point vibrational energy     146654.6 (Joules/Mol)
                                   35.05129 (Kcal/Mol)
 Warning -- explicit consideration of   1 degrees of freedom as
           vibrations may cause significant error
 Vibrational temperatures:    865.03  1128.05  1249.91  1327.64  1462.43
          (Kelvin)           1493.00  1544.13  1602.84  1655.46  2194.19
                             2495.49  4376.04  4463.35  4677.65  4741.79
 
 Zero-point correction=                           0.055858 (Hartree/Particle)
 Thermal correction to Energy=                    0.059187
 Thermal correction to Enthalpy=                  0.060132
 Thermal correction to Gibbs Free Energy=         0.031920
 Sum of electronic and zero-point Energies=           -116.611393
 Sum of electronic and thermal Energies=              -116.608064
 Sum of electronic and thermal Enthalpies=            -116.607119
 Sum of electronic and thermal Free Energies=         -116.635331
 
                     E (Thermal)             CV                S
                      KCal/Mol        Cal/Mol-Kelvin    Cal/Mol-Kelvin
 Total                   37.141             10.292             59.377
 Electronic               0.000              0.000              0.000
 Translational            0.889              2.981             36.989
 Rotational               0.889              2.981             21.072
 Vibrational             35.363              4.330              1.316
 Vibration     1          0.959              1.029              0.448
                       Q            Log10(Q)             Ln(Q)
 Total Bot       0.207963D-14        -14.682013        -33.806585
 Total V=0       0.102509D+12         11.010764         25.353220
 Vib (Bot)       0.232347D-25        -25.633863        -59.024152
 Vib (Bot)    1  0.248046D+00         -0.605467         -1.394140
 Vib (V=0)       0.114528D+01          0.058913          0.135653
 Vib (V=0)    1  0.105815D+01          0.024546          0.056518
 Electronic      0.100000D+01          0.000000          0.000000
 Translational   0.995528D+07          6.998053         16.113613
 Rotational      0.899077D+04          3.953797          9.103953
 ***** Axes restored to original set *****
 -------------------------------------------------------------------
 Center     Atomic                   Forces (Hartrees/Bohr)
 Number     Number              X              Y              Z
 -------------------------------------------------------------------
      1        6           0.000047419    0.000045130   -0.000000550
      2        6           0.000048444   -0.000046371    0.000000314
      3        6          -0.000208839   -0.000001611    0.000000931
      4        1           0.000003532   -0.000033077    0.000001326
      5        1           0.000002074    0.000033765   -0.000001307
      6        1           0.000053609    0.000003044   -0.000009144
      7        1           0.000053763   -0.000000881    0.000008430
 -------------------------------------------------------------------
 Cartesian Forces:  Max     0.000208839 RMS     0.000053712
 FormGI is forming the generalized inverse of G from B-inverse, IUseBI=4.

 GradGradGradGradGradGradGradGradGradGradGradGradGradGradGradGradGradGrad
 Berny optimization.
 Internal  Forces:  Max     0.000051138 RMS     0.000026501
 Search for a local minimum.
 Step number   1 out of a maximum of    2
 All quantities printed in internal units (Hartrees-Bohrs-Radians)
 Second derivative matrix not updated -- analytic derivatives used.
 ITU=  0
     Eigenvalues ---    0.00593   0.00763   0.05394   0.06163   0.06727
     Eigenvalues ---    0.08008   0.08846   0.10158   0.20163   0.25852
     Eigenvalues ---    0.32923   0.34429   0.37317   0.37440   0.66064
 Angle between quadratic step and forces=  29.78 degrees.
 Linear search not attempted -- first point.
 Iteration  1 RMS(Cart)=  0.00020742 RMS(Int)=  0.00000006
 Iteration  2 RMS(Cart)=  0.00000005 RMS(Int)=  0.00000003
 Variable       Old X    -DE/DX   Delta X   Delta X   Delta X     New X
                                 (Linear)    (Quad)   (Total)
    R1        2.43181   0.00002   0.00000   0.00007   0.00007   2.43188
    R2        2.84493  -0.00005   0.00000  -0.00031  -0.00031   2.84462
    R3        2.03190  -0.00003   0.00000  -0.00008  -0.00008   2.03182
    R4        2.84492  -0.00005   0.00000  -0.00031  -0.00031   2.84461
    R5        2.03190  -0.00003   0.00000  -0.00008  -0.00008   2.03182
    R6        2.05797   0.00002   0.00000   0.00012   0.00012   2.05809
    R7        2.05797   0.00002   0.00000   0.00012   0.00012   2.05809
    A1        2.61309  -0.00001   0.00000  -0.00021  -0.00021   2.61288
    A2        2.54091   0.00002   0.00000   0.00028   0.00028   2.54118
    A3        2.61312  -0.00001   0.00000  -0.00024  -0.00024   2.61288
    A4        2.54088   0.00002   0.00000   0.00030   0.00030   2.54118
    A5        2.08826   0.00002   0.00000   0.00028   0.00028   2.08853
    A6        2.08824   0.00002   0.00000   0.00030   0.00030   2.08853
    A7        2.08822   0.00002   0.00000   0.00032   0.00032   2.08853
    A8        2.08824   0.00002   0.00000   0.00029   0.00029   2.08853
    A9        1.98368  -0.00005   0.00000  -0.00072  -0.00072   1.98296
    D1       -0.00010  -0.00000   0.00000   0.00010   0.00010  -0.00000
    D2        1.29845  -0.00002   0.00000  -0.00032  -0.00032   1.29813
    D3       -1.29831   0.00002   0.00000   0.00019   0.00019  -1.29813
    D4       -1.29829   0.00002   0.00000   0.00016   0.00016  -1.29813
    D5        1.29841  -0.00002   0.00000  -0.00029  -0.00029   1.29813
         Item               Value     Threshold  Converged?
 Maximum Force            0.000051     0.000450     YES
 RMS     Force            0.000027     0.000300     YES
 Maximum Displacement     0.000385     0.001800     YES
 RMS     Displacement     0.000207     0.001200     YES
 Predicted change in Energy=-6.717685D-08
 Optimization completed.
    -- Stationary point found.
                           ----------------------------
                           !   Optimized Parameters   !
                           ! (Angstroms and Degrees)  !
 --------------------------                            --------------------------
 ! Name  Definition              Value          Derivative Info.                !
 --------------------------------------------------------------------------------
 ! R1    R(1,2)                  1.2869         -DE/DX =    0.0                 !
 ! R2    R(1,3)                  1.5055         -DE/DX =   -0.0001              !
 ! R3    R(1,4)                  1.0752         -DE/DX =    0.0                 !
 ! R4    R(2,3)                  1.5055         -DE/DX =    0.0                 !
 ! R5    R(2,5)                  1.0752         -DE/DX =    0.0                 !
 ! R6    R(3,6)                  1.089          -DE/DX =    0.0                 !
 ! R7    R(3,7)                  1.089          -DE/DX =    0.0                 !
 ! A1    A(2,1,4)              149.7191         -DE/DX =    0.0                 !
 ! A2    A(3,1,4)              145.5833         -DE/DX =    0.0                 !
 ! A3    A(1,2,5)              149.7205         -DE/DX =    0.0                 !
 ! A4    A(3,2,5)              145.5818         -DE/DX =    0.0                 !
 ! A5    A(1,3,6)              119.6482         -DE/DX =    0.0                 !
 ! A6    A(1,3,7)              119.6472         -DE/DX =    0.0                 !
 ! A7    A(2,3,6)              119.6462         -DE/DX =    0.0                 !
 ! A8    A(2,3,7)              119.6476         -DE/DX =    0.0                 !
 ! A9    A(6,3,7)              113.6565         -DE/DX =    0.0                 !
 ! D1    D(4,1,2,5)             -0.0056         -DE/DX =    0.0                 !
 ! D2    D(4,1,3,6)             74.3955         -DE/DX =    0.0                 !
 ! D3    D(4,1,3,7)            -74.3878         -DE/DX =    0.0                 !
 ! D4    D(5,2,3,6)            -74.3863         -DE/DX =    0.0                 !
 ! D5    D(5,2,3,7)             74.3937         -DE/DX =    0.0                 !
 --------------------------------------------------------------------------------
 GradGradGradGradGradGradGradGradGradGradGradGradGradGradGradGradGradGrad


 ----------------------------------------------------------------------

 Electric dipole moment (input orientation):
 (Debye = 10**-18 statcoulomb cm , SI units = C m)
                  (au)            (Debye)         (10**-30 SI)
   Tot        0.190107D+00      0.483204D+00      0.161179D+01
   x         -0.190107D+00     -0.483204D+00     -0.161179D+01
   y          0.000000D+00      0.000000D+00      0.000000D+00
   z          0.000000D+00      0.000000D+00      0.000000D+00

 Dipole polarizability, Alpha (input orientation).
 (esu units = cm**3 , SI units = C**2 m**2 J**-1)
 Alpha(0;0):
               (au)            (10**-24 esu)      (10**-40 SI)
   iso        0.326465D+02      0.483771D+01      0.538268D+01
   aniso      0.115361D+02      0.170947D+01      0.190204D+01
   xx         0.372967D+02      0.552681D+01      0.614940D+01
   yx        -0.261053D-03     -0.386840D-04     -0.430418D-04
   yy         0.356262D+02      0.527926D+01      0.587397D+01
   zx        -0.179825D-03     -0.266473D-04     -0.296491D-04
   zy        -0.687934D-03     -0.101941D-03     -0.113425D-03
   zz         0.250165D+02      0.370706D+01      0.412466D+01

 ----------------------------------------------------------------------

 Dipole orientation:
     6         -0.00010352          1.21593840          0.89359929
     6          0.00006041         -1.21587322          0.89382382
     6         -0.00002849         -0.00020817         -1.67828566
     1         -0.00026945          2.97071106          1.91800239
     1          0.00023066         -2.97047948          1.91850946
     1          1.72256242         -0.00027304         -2.80430617
     1         -1.72261943         -0.00041266         -2.80430210

 Electric dipole moment (dipole orientation):
 (Debye = 10**-18 statcoulomb cm , SI units = C m)
                  (au)            (Debye)         (10**-30 SI)
   Tot        0.190107D+00      0.483204D+00      0.161179D+01
   x          0.000000D+00      0.000000D+00      0.000000D+00
   y          0.000000D+00      0.000000D+00      0.000000D+00
   z          0.190107D+00      0.483204D+00      0.161179D+01

 Dipole polarizability, Alpha (dipole orientation).
 (esu units = cm**3 , SI units = C**2 m**2 J**-1)
 Alpha(0;0):
               (au)            (10**-24 esu)      (10**-40 SI)
   iso        0.326465D+02      0.483771D+01      0.538268D+01
   aniso      0.115361D+02      0.170947D+01      0.190204D+01
   xx         0.250165D+02      0.370706D+01      0.412466D+01
   yx        -0.880485D-03     -0.130474D-03     -0.145172D-03
   yy         0.356262D+02      0.527926D+01      0.587397D+01
   zx         0.206127D-04      0.305449D-05      0.339858D-05
   zy         0.291361D-03      0.431753D-04      0.480390D-04
   zz         0.372967D+02      0.552681D+01      0.614940D+01

 ----------------------------------------------------------------------
 Unable to Open any file for archive entry.
 1\1\GINC-NODE09\Freq\RB3LYP\def2TZVP\C3H4\SVSS\06-Sep-2022\0\\#N Geom=
 AllCheck Guess=TCheck SCRF=Check GenChk RB3LYP/def2TZVP Freq\\Do1_cres
 t_conf_1\\0,1\C,-0.4728840557,0.6434383088,-0.0000369728\C,-0.47297951
 67,-0.6434209842,0.0000264239\C,0.8881105266,-0.0000940384,-0.00002659
 15\H,-1.0149916857,1.5720141752,-0.0001008955\H,-1.0152029546,-1.57192
 8471,0.0001066944\H,1.4839867363,-0.0001340965,0.9115215316\H,1.483960
 9499,-0.0001748938,-0.9115901901\\Version=AS64L-G16RevC.01\State=1-A\H
 F=-116.6672511\RMSD=4.415e-09\RMSF=5.371e-05\ZeroPoint=0.0558578\Therm
 al=0.0591874\ETot=-116.6080637\HTot=-116.6071195\GTot=-116.6353314\Dip
 ole=-0.1901069,-0.0000035,0.0000025\DipoleDeriv=-0.0133666,-0.0528825,
 0.0000086,0.2934171,-0.1034361,-0.0000137,-0.0000098,-0.0000111,-0.241
 9648,-0.013413,0.0528703,-0.0000162,-0.2934291,-0.1034043,-0.000005,0.
 0000027,-0.0000129,-0.2419594,0.2592985,-0.0000439,0.0000016,-0.000049
 4,-0.2102312,0.0000162,0.0000023,0.0000179,0.3055633,0.0247424,0.11413
 63,-0.0000055,0.0451588,0.0679756,0.0000073,-0.0000029,0.0000105,0.201
 2669,0.0247231,-0.1141283,0.000011,-0.0451557,0.0679975,0.0000087,0.00
 00083,0.0000138,0.2012672,-0.1409957,0.0000217,-0.077046,0.0000274,0.1
 405491,0.0000023,-0.1345097,0.0000018,-0.1120839,-0.1409887,0.0000263,
 0.0770467,0.0000309,0.1405494,-0.0000159,0.1345091,-0.0000201,-0.11208
 93\Polar=37.2967365,-0.0002611,35.6262398,-0.0001798,-0.0006879,25.016
 4997\Quadrupole=-0.22776,1.0722123,-0.8444522,0.0000491,-0.0000129,-0.
 0001951\PG=C01 [X(C3H4)]\NImag=0\\0.35113500,-0.20524442,1.03316845,0.
 00000919,-0.00005220,0.09709935,-0.01367333,-0.01460402,0.00000044,0.3
 5119064,0.01450293,-0.69229424,0.00003358,0.20534159,1.03311755,-0.000
 00156,0.00003403,-0.05064183,-0.00001688,-0.00005831,0.09710063,-0.180
 28355,0.08547250,-0.00000201,-0.18030485,-0.08545335,0.00000620,0.5844
 5780,0.05502625,-0.05468319,-0.00000005,-0.05500519,-0.05466511,0.0000
 0155,-0.00003508,0.18876929,0.00000010,-0.00000045,-0.04351436,0.00000
 416,0.00000212,-0.04351458,-0.00000191,0.00000820,0.57274391,-0.121862
 39,0.14070420,-0.00000962,0.00183068,-0.00578735,0.00000047,0.00042538
 ,0.01106638,-0.00000070,0.11583791,0.13442400,-0.28523716,0.00001715,0
 .01431980,-0.00440069,0.00000109,-0.00176331,-0.00084230,0.00000031,-0
 .14740559,0.28871789,-0.00000937,0.00001842,-0.02872925,-0.00000082,-0
 .00000016,0.01184481,0.00000043,0.00000029,0.00620540,0.00000994,-0.00
 001810,0.01617167,0.00182890,0.00578655,-0.00000016,-0.12189651,-0.140
 72477,0.00001248,0.00042372,-0.01106798,0.00000086,0.00241854,0.000372
 38,-0.00000011,0.11587567,-0.01432016,-0.00439855,0.00000152,-0.134445
 82,-0.28520424,0.00002118,0.00176295,-0.00084079,0.00000026,-0.0003726
 4,0.00032823,-0.00000035,0.14742845,0.28868125,0.00000113,-0.00000030,
 0.01184485,0.00001220,0.00002261,-0.02872972,-0.00000023,0.00000063,0.
 00620590,-0.00000010,-0.00000037,-0.00420342,-0.00001299,-0.00002254,0
 .01617175,-0.01857195,-0.00605806,-0.01248336,-0.01857416,0.00605976,-
 0.01248814,-0.11236198,0.00000544,-0.11085377,0.00067492,0.00002630,-0
 .00031029,0.00067485,-0.00002643,-0.00031074,0.13796862,0.00780546,0.0
 0172294,0.01716571,-0.00780399,0.00172277,-0.01716416,0.00000611,-0.03
 886910,0.00000655,0.00089759,0.00071726,0.00323985,-0.00089732,0.00071
 680,-0.00323964,-0.00000638,0.03469789,-0.00000084,0.00062031,0.006970
 40,-0.00000103,-0.00062009,0.00697094,-0.11002015,0.00000575,-0.249059
 29,-0.00026917,-0.00028832,-0.00064466,-0.00026922,0.00028830,-0.00064
 461,0.12350380,-0.00000640,0.25637290,-0.01857267,-0.00605674,0.012485
 52,-0.01857247,0.00606119,0.01248744,-0.11235651,0.00001018,0.11085125
 ,0.00067497,0.00002642,0.00031022,0.00067483,-0.00002634,0.00031073,0.
 01018971,-0.00000146,-0.01294341,0.13796213,0.00780594,0.00172175,-0.0
 1716570,-0.00780237,0.00172397,0.01716460,0.00001018,-0.03886879,-0.00
 001700,0.00089742,0.00071676,-0.00323994,-0.00089730,0.00071731,0.0032
 3961,-0.00000063,-0.00070857,0.00000045,-0.00001325,0.03469757,0.00000
 134,-0.00061981,0.00697083,0.00000194,0.00062024,0.00696975,0.11001767
 ,-0.00001636,-0.24906698,0.00026917,0.00028824,-0.00064455,0.00026913,
 -0.00028838,-0.00064474,0.01294251,-0.00000191,-0.01996568,-0.12350176
 ,0.00001798,0.25638136\\-0.00004742,-0.00004513,0.00000055,-0.00004844
 ,0.00004637,-0.00000031,0.00020884,0.00000161,-0.00000093,-0.00000353,
 0.00003308,-0.00000133,-0.00000207,-0.00003377,0.00000131,-0.00005361,
 -0.00000304,0.00000914,-0.00005376,0.00000088,-0.00000843\\\@
 The archive entry for this job was punched.


 WHEN YOU'VE SEEN ONE NUCLEAR WAR YOU'VE SEEN THEM ALL.
 Job cpu time:       0 days  0 hours  2 minutes 34.6 seconds.
 Elapsed time:       0 days  0 hours  0 minutes 10.5 seconds.
 File lengths (MBytes):  RWF=     14 Int=      0 D2E=      0 Chk=      2 Scr=      1
 Normal termination of Gaussian 16 at Tue Sep  6 22:56:57 2022.
