Job Start Time: Tue Sep  6 22:56:36 MDT 2022
SLURM Job ID: 71219
SLURM Job Name: Do2_crest_conf_1
 Entering Gaussian System, Link 0=/opt/apps/Gaussian/G16C/g16/g16
 Initial command:
 /opt/apps/Gaussian/G16C/g16/l1.exe "/tmp/Gau-3073261.inp" -scrdir="/tmp/"
 Entering Link 1 = /opt/apps/Gaussian/G16C/g16/l1.exe PID=   3073262.
  
 Copyright (c) 1988-2019, Gaussian, Inc.  All Rights Reserved.
  
 This is part of the Gaussian(R) 16 program.  It is based on
 the Gaussian(R) 09 system (copyright 2009, Gaussian, Inc.),
 the Gaussian(R) 03 system (copyright 2003, Gaussian, Inc.),
 the Gaussian(R) 98 system (copyright 1998, Gaussian, Inc.),
 the Gaussian(R) 94 system (copyright 1995, Gaussian, Inc.),
 the Gaussian 92(TM) system (copyright 1992, Gaussian, Inc.),
 the Gaussian 90(TM) system (copyright 1990, Gaussian, Inc.),
 the Gaussian 88(TM) system (copyright 1988, Gaussian, Inc.),
 the Gaussian 86(TM) system (copyright 1986, Carnegie Mellon
 University), and the Gaussian 82(TM) system (copyright 1983,
 Carnegie Mellon University). Gaussian is a federally registered
 trademark of Gaussian, Inc.
  
 This software contains proprietary and confidential information,
 including trade secrets, belonging to Gaussian, Inc.
  
 This software is provided under written license and may be
 used, copied, transmitted, or stored only in accord with that
 written license.
  
 The following legend is applicable only to US Government
 contracts under FAR:
  
                    RESTRICTED RIGHTS LEGEND
  
 Use, reproduction and disclosure by the US Government is
 subject to restrictions as set forth in subparagraphs (a)
 and (c) of the Commercial Computer Software - Restricted
 Rights clause in FAR 52.227-19.
  
 Gaussian, Inc.
 340 Quinnipiac St., Bldg. 40, Wallingford CT 06492
  
  
 ---------------------------------------------------------------
 Warning -- This program may not be used in any manner that
 competes with the business of Gaussian, Inc. or will provide
 assistance to any competitor of Gaussian, Inc.  The licensee
 of this program is prohibited from giving any competitor of
 Gaussian, Inc. access to this program.  By using this program,
 the user acknowledges that Gaussian, Inc. is engaged in the
 business of creating and licensing software in the field of
 computational chemistry and represents and warrants to the
 licensee that it is not a competitor of Gaussian, Inc. and that
 it will not use this program in any manner prohibited above.
 ---------------------------------------------------------------
  

 Cite this work as:
 Gaussian 16, Revision C.01,
 M. J. Frisch, G. W. Trucks, H. B. Schlegel, G. E. Scuseria, 
 M. A. Robb, J. R. Cheeseman, G. Scalmani, V. Barone, 
 G. A. Petersson, H. Nakatsuji, X. Li, M. Caricato, A. V. Marenich, 
 J. Bloino, B. G. Janesko, R. Gomperts, B. Mennucci, H. P. Hratchian, 
 J. V. Ortiz, A. F. Izmaylov, J. L. Sonnenberg, D. Williams-Young, 
 F. Ding, F. Lipparini, F. Egidi, J. Goings, B. Peng, A. Petrone, 
 T. Henderson, D. Ranasinghe, V. G. Zakrzewski, J. Gao, N. Rega, 
 G. Zheng, W. Liang, M. Hada, M. Ehara, K. Toyota, R. Fukuda, 
 J. Hasegawa, M. Ishida, T. Nakajima, Y. Honda, O. Kitao, H. Nakai, 
 T. Vreven, K. Throssell, J. A. Montgomery, Jr., J. E. Peralta, 
 F. Ogliaro, M. J. Bearpark, J. J. Heyd, E. N. Brothers, K. N. Kudin, 
 V. N. Staroverov, T. A. Keith, R. Kobayashi, J. Normand, 
 K. Raghavachari, A. P. Rendell, J. C. Burant, S. S. Iyengar, 
 J. Tomasi, M. Cossi, J. M. Millam, M. Klene, C. Adamo, R. Cammi, 
 J. W. Ochterski, R. L. Martin, K. Morokuma, O. Farkas, 
 J. B. Foresman, and D. J. Fox, Gaussian, Inc., Wallingford CT, 2019.
 
 ******************************************
 Gaussian 16:  AS64L-G16RevC.01  3-Jul-2019
                 6-Sep-2022 
 ******************************************
 %nprocshared=16
 Will use up to   16 processors via shared memory.
 %mem=72GB
 -------------------------
 # B3LYP/def2tzvp opt freq
 -------------------------
 1/18=20,19=15,26=3,38=1/1,3;
 2/9=110,12=2,17=6,18=5,40=1/2;
 3/5=44,7=101,11=2,25=1,30=1,71=1,74=-5/1,2,3;
 4//1;
 5/5=2,38=5/2;
 6/7=2,8=2,9=2,10=2,28=1/1;
 7//1,2,3,16;
 1/18=20,19=15,26=3/3(2);
 2/9=110/2;
 99//99;
 2/9=110/2;
 3/5=44,7=101,11=2,25=1,30=1,71=1,74=-5/1,2,3;
 4/5=5,16=3,69=1/1;
 5/5=2,38=5/2;
 7//1,2,3,16;
 1/18=20,19=15,26=3/3(-5);
 2/9=110/2;
 6/7=2,8=2,9=2,10=2,19=2,28=1/1;
 99/9=1/99;
 ----------------
 Do2_crest_conf_1
 ----------------
 Symbolic Z-matrix:
 Charge =  0 Multiplicity = 1
 C                     0.7814    0.6643   -0.0001 
 C                     0.7813   -0.6644    0.0001 
 C                    -0.718    -0.7753   -0.0001 
 C                    -0.7179    0.7753    0.0001 
 H                     1.5475    1.4186   -0.0002 
 H                     1.5473   -1.4187    0.0001 
 H                    -1.1518   -1.2337    0.8873 
 H                    -1.1515   -1.2333   -0.8878 
 H                    -1.1516    1.2337   -0.8875 
 H                    -1.1514    1.2336    0.8878 
 

 GradGradGradGradGradGradGradGradGradGradGradGradGradGradGradGradGradGrad
 Berny optimization.
 Initialization pass.
                           ----------------------------
                           !    Initial Parameters    !
                           ! (Angstroms and Degrees)  !
 --------------------------                            --------------------------
 ! Name  Definition              Value          Derivative Info.                !
 --------------------------------------------------------------------------------
 ! R1    R(1,2)                  1.3287         estimate D2E/DX2                !
 ! R2    R(1,4)                  1.5034         estimate D2E/DX2                !
 ! R3    R(1,5)                  1.0751         estimate D2E/DX2                !
 ! R4    R(2,3)                  1.5034         estimate D2E/DX2                !
 ! R5    R(2,6)                  1.075          estimate D2E/DX2                !
 ! R6    R(3,4)                  1.5506         estimate D2E/DX2                !
 ! R7    R(3,7)                  1.0889         estimate D2E/DX2                !
 ! R8    R(3,8)                  1.0889         estimate D2E/DX2                !
 ! R9    R(4,9)                  1.0891         estimate D2E/DX2                !
 ! R10   R(4,10)                 1.089          estimate D2E/DX2                !
 ! A1    A(2,1,4)               94.2298         estimate D2E/DX2                !
 ! A2    A(2,1,5)              134.5596         estimate D2E/DX2                !
 ! A3    A(4,1,5)              131.2105         estimate D2E/DX2                !
 ! A4    A(1,2,3)               94.2347         estimate D2E/DX2                !
 ! A5    A(1,2,6)              134.5548         estimate D2E/DX2                !
 ! A6    A(3,2,6)              131.2106         estimate D2E/DX2                !
 ! A7    A(2,3,4)               85.766          estimate D2E/DX2                !
 ! A8    A(2,3,7)              115.3551         estimate D2E/DX2                !
 ! A9    A(2,3,8)              115.3508         estimate D2E/DX2                !
 ! A10   A(4,3,7)              114.8902         estimate D2E/DX2                !
 ! A11   A(4,3,8)              114.8813         estimate D2E/DX2                !
 ! A12   A(7,3,8)              109.1894         estimate D2E/DX2                !
 ! A13   A(1,4,3)               85.7696         estimate D2E/DX2                !
 ! A14   A(1,4,9)              115.3479         estimate D2E/DX2                !
 ! A15   A(1,4,10)             115.3506         estimate D2E/DX2                !
 ! A16   A(3,4,9)              114.8839         estimate D2E/DX2                !
 ! A17   A(3,4,10)             114.8924         estimate D2E/DX2                !
 ! A18   A(9,4,10)             109.1891         estimate D2E/DX2                !
 ! D1    D(4,1,2,3)              0.0166         estimate D2E/DX2                !
 ! D2    D(4,1,2,6)            179.9998         estimate D2E/DX2                !
 ! D3    D(5,1,2,3)           -179.9927         estimate D2E/DX2                !
 ! D4    D(5,1,2,6)             -0.0095         estimate D2E/DX2                !
 ! D5    D(2,1,4,3)             -0.0161         estimate D2E/DX2                !
 ! D6    D(2,1,4,9)           -115.6004         estimate D2E/DX2                !
 ! D7    D(2,1,4,10)           115.5781         estimate D2E/DX2                !
 ! D8    D(5,1,4,3)            179.9927         estimate D2E/DX2                !
 ! D9    D(5,1,4,9)             64.4084         estimate D2E/DX2                !
 ! D10   D(5,1,4,10)           -64.4131         estimate D2E/DX2                !
 ! D11   D(1,2,3,4)             -0.0161         estimate D2E/DX2                !
 ! D12   D(1,2,3,7)           -115.6066         estimate D2E/DX2                !
 ! D13   D(1,2,3,8)            115.564          estimate D2E/DX2                !
 ! D14   D(6,2,3,4)            179.9998         estimate D2E/DX2                !
 ! D15   D(6,2,3,7)             64.4093         estimate D2E/DX2                !
 ! D16   D(6,2,3,8)            -64.4201         estimate D2E/DX2                !
 ! D17   D(2,3,4,1)              0.0142         estimate D2E/DX2                !
 ! D18   D(2,3,4,9)            116.0482         estimate D2E/DX2                !
 ! D19   D(2,3,4,10)          -116.0241         estimate D2E/DX2                !
 ! D20   D(7,3,4,1)            116.0555         estimate D2E/DX2                !
 ! D21   D(7,3,4,9)           -127.9105         estimate D2E/DX2                !
 ! D22   D(7,3,4,10)             0.0172         estimate D2E/DX2                !
 ! D23   D(8,3,4,1)           -116.021          estimate D2E/DX2                !
 ! D24   D(8,3,4,9)              0.013          estimate D2E/DX2                !
 ! D25   D(8,3,4,10)           127.9407         estimate D2E/DX2                !
 --------------------------------------------------------------------------------
 Trust Radius=3.00D-01 FncErr=1.00D-07 GrdErr=1.00D-06 EigMax=2.50D+02 EigMin=1.00D-04
 Number of steps in this run=     63 maximum allowed number of steps=    100.
 GradGradGradGradGradGradGradGradGradGradGradGradGradGradGradGradGradGrad

                          Input orientation:                          
 ---------------------------------------------------------------------
 Center     Atomic      Atomic             Coordinates (Angstroms)
 Number     Number       Type             X           Y           Z
 ---------------------------------------------------------------------
      1          6           0        0.781400    0.664300   -0.000100
      2          6           0        0.781300   -0.664400    0.000100
      3          6           0       -0.718000   -0.775300   -0.000100
      4          6           0       -0.717900    0.775300    0.000100
      5          1           0        1.547500    1.418600   -0.000200
      6          1           0        1.547300   -1.418700    0.000100
      7          1           0       -1.151800   -1.233700    0.887300
      8          1           0       -1.151500   -1.233300   -0.887800
      9          1           0       -1.151600    1.233700   -0.887500
     10          1           0       -1.151400    1.233600    0.887800
 ---------------------------------------------------------------------
                    Distance matrix (angstroms):
                    1          2          3          4          5
     1  C    0.000000
     2  C    1.328700   0.000000
     3  C    2.078617   1.503396   0.000000
     4  C    1.503403   2.078542   1.550600   0.000000
     5  H    1.075118   2.219448   3.153678   2.354968   0.000000
     6  H    2.219345   1.075046   2.354899   3.153532   2.837300
     7  H    2.850815   2.201841   1.088941   2.238632   3.886975
     8  H    2.850438   2.201756   1.088897   2.238493   3.886516
     9  H    2.201859   2.850740   2.238653   1.089064   2.847214
    10  H    2.201859   2.850569   2.238723   1.089024   2.847250
                    6          7          8          9         10
     6  H    0.000000
     7  H    2.847190   0.000000
     8  H    2.847150   1.775100   0.000000
     9  H    3.886788   3.039404   2.467000   0.000000
    10  H    3.886604   2.467300   3.039466   1.775300   0.000000
 Stoichiometry    C4H6
 Framework group  C1[X(C4H6)]
 Deg. of freedom    24
 Full point group                 C1      NOp   1
 Largest Abelian subgroup         C1      NOp   1
 Largest concise Abelian subgroup C1      NOp   1
                         Standard orientation:                         
 ---------------------------------------------------------------------
 Center     Atomic      Atomic             Coordinates (Angstroms)
 Number     Number       Type             X           Y           Z
 ---------------------------------------------------------------------
      1          6           0       -0.806794    0.663863    0.000090
      2          6           0       -0.805952   -0.664837   -0.000110
      3          6           0        0.693409   -0.774900    0.000090
      4          6           0        0.692444    0.775700   -0.000110
      5          1           0       -1.573315    1.417735    0.000190
      6          1           0       -1.571531   -1.419564   -0.000110
      7          1           0        1.127465   -1.233057   -0.887310
      8          1           0        1.127165   -1.232658    0.887790
      9          1           0        1.125888    1.234342    0.887490
     10          1           0        1.125688    1.234242   -0.887810
 ---------------------------------------------------------------------
 Rotational constants (GHZ):          13.1657425          12.5182400           6.9798591
 Standard basis: def2TZVP (5D, 7F)
 There are   180 symmetry adapted cartesian basis functions of A   symmetry.
 There are   160 symmetry adapted basis functions of A   symmetry.
   160 basis functions,   252 primitive gaussians,   180 cartesian basis functions
    15 alpha electrons       15 beta electrons
       nuclear repulsion energy       114.1815847554 Hartrees.
 NAtoms=   10 NActive=   10 NUniq=   10 SFac= 1.00D+00 NAtFMM=   60 NAOKFM=F Big=F
 Integral buffers will be    131072 words long.
 Raffenetti 2 integral format.
 Two-electron integral symmetry is turned on.
 One-electron integrals computed using PRISM.
   1 Symmetry operations used in ECPInt.
 ECPInt:  NShTT=    2346 NPrTT=    6892 LenC2=    2342 LenP2D=    6083.
 LDataN:  DoStor=T MaxTD1= 6 Len=  172
 NBasis=   160 RedAO= T EigKep=  4.64D-05  NBF=   160
 NBsUse=   160 1.00D-06 EigRej= -1.00D+00 NBFU=   160
 ExpMin= 9.52D-02 ExpMax= 1.36D+04 ExpMxC= 4.63D+02 IAcc=3 IRadAn=         5 AccDes= 0.00D+00
 Harris functional with IExCor=  402 and IRadAn=       5 diagonalized for initial guess.
 HarFok:  IExCor=  402 AccDes= 0.00D+00 IRadAn=         5 IDoV= 1 UseB2=F ITyADJ=14
 ICtDFT=  3500011 ScaDFX=  1.000000  1.000000  1.000000  1.000000
 FoFCou: FMM=F IPFlag=           0 FMFlag=      100000 FMFlg1=           0
         NFxFlg=           0 DoJE=T BraDBF=F KetDBF=T FulRan=T
         wScrn=  0.000000 ICntrl=       500 IOpCl=  0 I1Cent=   200000004 NGrid=           0
         NMat0=    1 NMatS0=      1 NMatT0=    0 NMatD0=    1 NMtDS0=    0 NMtDT0=    0
 Petite list used in FoFCou.
 Keep R1 ints in memory in canonical form, NReq=99107988.
 Requested convergence on RMS density matrix=1.00D-08 within 128 cycles.
 Requested convergence on MAX density matrix=1.00D-06.
 Requested convergence on             energy=1.00D-06.
 No special actions if energy rises.
 Integral accuracy reduced to 1.0D-05 until final iterations.
 Initial convergence to 1.0D-05 achieved.  Increase integral accuracy.
 SCF Done:  E(RB3LYP) =  -156.033003537     A.U. after   11 cycles
            NFock= 11  Conv=0.47D-08     -V/T= 2.0047

 **********************************************************************

            Population analysis using the SCF Density.

 **********************************************************************

 Orbital symmetries:
       Occupied  (A) (A) (A) (A) (A) (A) (A) (A) (A) (A) (A) (A)
                 (A) (A) (A)
       Virtual   (A) (A) (A) (A) (A) (A) (A) (A) (A) (A) (A) (A)
                 (A) (A) (A) (A) (A) (A) (A) (A) (A) (A) (A) (A)
                 (A) (A) (A) (A) (A) (A) (A) (A) (A) (A) (A) (A)
                 (A) (A) (A) (A) (A) (A) (A) (A) (A) (A) (A) (A)
                 (A) (A) (A) (A) (A) (A) (A) (A) (A) (A) (A) (A)
                 (A) (A) (A) (A) (A) (A) (A) (A) (A) (A) (A) (A)
                 (A) (A) (A) (A) (A) (A) (A) (A) (A) (A) (A) (A)
                 (A) (A) (A) (A) (A) (A) (A) (A) (A) (A) (A) (A)
                 (A) (A) (A) (A) (A) (A) (A) (A) (A) (A) (A) (A)
                 (A) (A) (A) (A) (A) (A) (A) (A) (A) (A) (A) (A)
                 (A) (A) (A) (A) (A) (A) (A) (A) (A) (A) (A) (A)
                 (A) (A) (A) (A) (A) (A) (A) (A) (A) (A) (A) (A)
                 (A)
 The electronic state is 1-A.
 Alpha  occ. eigenvalues --  -10.16978 -10.16960 -10.16773 -10.16683  -0.86436
 Alpha  occ. eigenvalues --   -0.65951  -0.64740  -0.51721  -0.50486  -0.46470
 Alpha  occ. eigenvalues --   -0.38769  -0.36454  -0.33363  -0.31967  -0.25533
 Alpha virt. eigenvalues --    0.01021   0.04980   0.07106   0.08101   0.08506
 Alpha virt. eigenvalues --    0.10561   0.12109   0.14715   0.16178   0.19271
 Alpha virt. eigenvalues --    0.19701   0.23161   0.23738   0.23915   0.25731
 Alpha virt. eigenvalues --    0.30046   0.32834   0.35710   0.36866   0.38441
 Alpha virt. eigenvalues --    0.38657   0.40831   0.41551   0.42075   0.42167
 Alpha virt. eigenvalues --    0.44310   0.45769   0.49229   0.50841   0.54644
 Alpha virt. eigenvalues --    0.56652   0.59982   0.67947   0.71810   0.72964
 Alpha virt. eigenvalues --    0.85719   0.87998   0.90337   0.94271   0.94905
 Alpha virt. eigenvalues --    0.98377   0.98399   1.00980   1.05107   1.05830
 Alpha virt. eigenvalues --    1.08978   1.15003   1.15759   1.17177   1.19769
 Alpha virt. eigenvalues --    1.22306   1.32443   1.37533   1.41497   1.44452
 Alpha virt. eigenvalues --    1.48038   1.51631   1.52942   1.60949   1.63089
 Alpha virt. eigenvalues --    1.63792   1.64045   1.72156   1.75937   1.77365
 Alpha virt. eigenvalues --    1.80356   1.82690   1.91454   2.01761   2.03512
 Alpha virt. eigenvalues --    2.04432   2.05718   2.09287   2.12884   2.18552
 Alpha virt. eigenvalues --    2.22301   2.24568   2.24786   2.44478   2.44478
 Alpha virt. eigenvalues --    2.45899   2.50339   2.51764   2.54562   2.60455
 Alpha virt. eigenvalues --    2.60530   2.61299   2.62084   2.64463   2.68748
 Alpha virt. eigenvalues --    2.71192   2.75836   2.82566   2.83859   2.88206
 Alpha virt. eigenvalues --    2.90963   2.93698   2.95296   2.99641   3.01354
 Alpha virt. eigenvalues --    3.03407   3.09020   3.11986   3.15291   3.16690
 Alpha virt. eigenvalues --    3.22019   3.22514   3.23031   3.30853   3.32343
 Alpha virt. eigenvalues --    3.34843   3.44319   3.47111   3.51709   3.55467
 Alpha virt. eigenvalues --    3.56453   3.66975   3.67587   3.68911   3.73569
 Alpha virt. eigenvalues --    3.91009   3.92698   3.93610   4.02209   4.07495
 Alpha virt. eigenvalues --    4.08477   4.19242   4.26063   4.27910   4.32638
 Alpha virt. eigenvalues --    4.37402   4.40264   4.49483   4.53930   4.55950
 Alpha virt. eigenvalues --    4.57828   4.72781   4.75640   4.91848   5.11379
 Alpha virt. eigenvalues --    5.39442  22.03742  22.41747  22.48916  22.77392
          Condensed to atoms (all electrons):
               1          2          3          4          5          6
     1  C    5.068655   0.577531  -0.165132   0.355089   0.403749  -0.038167
     2  C    0.577531   5.068644   0.355100  -0.165175  -0.038151   0.403765
     3  C   -0.165132   0.355100   4.869128   0.363845   0.021247  -0.045784
     4  C    0.355089  -0.165175   0.363845   4.869254  -0.045775   0.021255
     5  H    0.403749  -0.038151   0.021247  -0.045775   0.557700  -0.003181
     6  H   -0.038167   0.403765  -0.045784   0.021255  -0.003181   0.557711
     7  H    0.000183  -0.029391   0.390668  -0.022699  -0.001034   0.001239
     8  H    0.000123  -0.029325   0.390643  -0.022669  -0.001034   0.001239
     9  H   -0.029381   0.000170  -0.022689   0.390616   0.001240  -0.001035
    10  H   -0.029345   0.000144  -0.022674   0.390628   0.001238  -0.001034
               7          8          9         10
     1  C    0.000183   0.000123  -0.029381  -0.029345
     2  C   -0.029391  -0.029325   0.000170   0.000144
     3  C    0.390668   0.390643  -0.022689  -0.022674
     4  C   -0.022699  -0.022669   0.390616   0.390628
     5  H   -0.001034  -0.001034   0.001240   0.001238
     6  H    0.001239   0.001239  -0.001035  -0.001034
     7  H    0.613427  -0.036732   0.000775  -0.003271
     8  H   -0.036732   0.613400  -0.003273   0.000778
     9  H    0.000775  -0.003273   0.613484  -0.036725
    10  H   -0.003271   0.000778  -0.036725   0.613410
 Mulliken charges:
               1
     1  C   -0.143305
     2  C   -0.143313
     3  C   -0.134351
     4  C   -0.134371
     5  H    0.104001
     6  H    0.103992
     7  H    0.086834
     8  H    0.086848
     9  H    0.086817
    10  H    0.086849
 Sum of Mulliken charges =  -0.00000
 Mulliken charges with hydrogens summed into heavy atoms:
               1
     1  C   -0.039304
     2  C   -0.039322
     3  C    0.039330
     4  C    0.039295
 Electronic spatial extent (au):  <R**2>=            232.4407
 Charge=             -0.0000 electrons
 Dipole moment (field-independent basis, Debye):
    X=              0.1422    Y=              0.0000    Z=              0.0001  Tot=              0.1422
 Quadrupole moment (field-independent basis, Debye-Ang):
   XX=            -25.1030   YY=            -24.3323   ZZ=            -26.1248
   XY=             -0.0010   XZ=             -0.0001   YZ=             -0.0001
 Traceless Quadrupole moment (field-independent basis, Debye-Ang):
   XX=              0.0837   YY=              0.8544   ZZ=             -0.9381
   XY=             -0.0010   XZ=             -0.0001   YZ=             -0.0001
 Octapole moment (field-independent basis, Debye-Ang**2):
  XXX=             -1.8422  YYY=             -0.0046  ZZZ=              0.0004  XYY=             -2.0904
  XXY=              0.0009  XXZ=              0.0002  XZZ=              2.8775  YZZ=              0.0015
  YYZ=             -0.0003  XYZ=             -0.0007
 Hexadecapole moment (field-independent basis, Debye-Ang**3):
 XXXX=           -145.8643 YYYY=           -139.7856 ZZZZ=            -44.1919 XXXY=             -0.0113
 XXXZ=             -0.0006 YYYX=              0.0056 YYYZ=              0.0007 ZZZX=              0.0001
 ZZZY=             -0.0010 XXYY=            -43.0580 XXZZ=            -32.6359 YYZZ=            -29.7844
 XXYZ=              0.0009 YYXZ=             -0.0010 ZZXY=             -0.0014
 N-N= 1.141815847554D+02 E-N=-5.897802580464D+02  KE= 1.552964895768D+02
   1 Symmetry operations used in ECPInt.
 ECPInt:  NShTT=    2346 NPrTT=    6892 LenC2=    2342 LenP2D=    6083.
 LDataN:  DoStor=T MaxTD1= 7 Len=  274
 Calling FoFJK, ICntrl=      2127 FMM=F ISym2X=0 I1Cent= 0 IOpClX= 0 NMat=1 NMatS=1 NMatT=0.
 ***** Axes restored to original set *****
 -------------------------------------------------------------------
 Center     Atomic                   Forces (Hartrees/Bohr)
 Number     Number              X              Y              Z
 -------------------------------------------------------------------
      1        6           0.002291601    0.004745743    0.000027094
      2        6           0.002288322   -0.004725329   -0.000027313
      3        6          -0.003047642   -0.006329383    0.000047548
      4        6          -0.003102271    0.006419290   -0.000050365
      5        1           0.004993495    0.002566314   -0.000000013
      6        1           0.005028203   -0.002607076    0.000001354
      7        1          -0.002122317   -0.001438799    0.001243963
      8        1          -0.002128443   -0.001452896   -0.001265015
      9        1          -0.002098485    0.001411941   -0.001176202
     10        1          -0.002102463    0.001410195    0.001198950
 -------------------------------------------------------------------
 Cartesian Forces:  Max     0.006419290 RMS     0.002893191

 GradGradGradGradGradGradGradGradGradGradGradGradGradGradGradGradGradGrad
 Berny optimization.
 FormGI is forming the generalized inverse of G from B-inverse, IUseBI=4.
 Internal  Forces:  Max     0.009131492 RMS     0.002546316
 Search for a local minimum.
 Step number   1 out of a maximum of   63
 All quantities printed in internal units (Hartrees-Bohrs-Radians)
 Mixed Optimization -- RFO/linear search
 Second derivative matrix not updated -- first step.
 ITU=  0
     Eigenvalues ---    0.00674   0.01330   0.01927   0.03914   0.04860
     Eigenvalues ---    0.04910   0.05701   0.07353   0.07418   0.07802
     Eigenvalues ---    0.07922   0.16000   0.16000   0.21647   0.26600
     Eigenvalues ---    0.28958   0.32007   0.34921   0.34926   0.34935
     Eigenvalues ---    0.34940   0.36591   0.36600   0.54713
 RFO step:  Lambda=-1.09396539D-03 EMin= 6.73838059D-03
 Linear search not attempted -- first point.
 Iteration  1 RMS(Cart)=  0.01245437 RMS(Int)=  0.00004214
 Iteration  2 RMS(Cart)=  0.00004649 RMS(Int)=  0.00001063
 Iteration  3 RMS(Cart)=  0.00000000 RMS(Int)=  0.00001063
 Variable       Old X    -DE/DX   Delta X   Delta X   Delta X     New X
                                 (Linear)    (Quad)   (Total)
    R1        2.51088   0.00742   0.00000   0.01363   0.01362   2.52450
    R2        2.84102   0.00729   0.00000   0.02285   0.02285   2.86387
    R3        2.03168   0.00536   0.00000   0.01460   0.01460   2.04628
    R4        2.84101   0.00729   0.00000   0.02286   0.02286   2.86386
    R5        2.03154   0.00541   0.00000   0.01474   0.01474   2.04629
    R6        2.93021   0.00913   0.00000   0.03027   0.03028   2.96049
    R7        2.05780   0.00246   0.00000   0.00703   0.00703   2.06483
    R8        2.05772   0.00249   0.00000   0.00710   0.00710   2.06482
    R9        2.05803   0.00239   0.00000   0.00682   0.00682   2.06485
   R10        2.05796   0.00241   0.00000   0.00687   0.00687   2.06483
    A1        1.64462   0.00012   0.00000   0.00239   0.00237   1.64699
    A2        2.34851  -0.00176   0.00000  -0.01175  -0.01175   2.33676
    A3        2.29006   0.00164   0.00000   0.00937   0.00937   2.29943
    A4        1.64470   0.00010   0.00000   0.00229   0.00228   1.64698
    A5        2.34842  -0.00175   0.00000  -0.01168  -0.01167   2.33675
    A6        2.29006   0.00165   0.00000   0.00939   0.00939   2.29945
    A7        1.49690  -0.00010   0.00000  -0.00230  -0.00229   1.49461
    A8        2.01333   0.00048   0.00000   0.00858   0.00857   2.02190
    A9        2.01325   0.00047   0.00000   0.00848   0.00847   2.02172
   A10        2.00521   0.00012   0.00000  -0.00034  -0.00035   2.00486
   A11        2.00506   0.00011   0.00000  -0.00036  -0.00037   2.00469
   A12        1.90572  -0.00083   0.00000  -0.01099  -0.01103   1.89469
   A13        1.49696  -0.00012   0.00000  -0.00238  -0.00236   1.49460
   A14        2.01320   0.00049   0.00000   0.00867   0.00866   2.02186
   A15        2.01325   0.00048   0.00000   0.00854   0.00853   2.02177
   A16        2.00510   0.00012   0.00000  -0.00027  -0.00028   2.00482
   A17        2.00525   0.00011   0.00000  -0.00048  -0.00049   2.00476
   A18        1.90571  -0.00084   0.00000  -0.01101  -0.01105   1.89466
    D1        0.00029  -0.00001   0.00000  -0.00058  -0.00058  -0.00029
    D2        3.14159  -0.00000   0.00000  -0.00012  -0.00012   3.14147
    D3       -3.14147  -0.00001   0.00000  -0.00020  -0.00020   3.14152
    D4       -0.00017   0.00000   0.00000   0.00027   0.00026   0.00009
    D5       -0.00028   0.00001   0.00000   0.00057   0.00057   0.00029
    D6       -2.01761  -0.00014   0.00000   0.00078   0.00079  -2.01682
    D7        2.01722   0.00014   0.00000   0.00010   0.00009   2.01731
    D8        3.14147   0.00001   0.00000   0.00020   0.00020  -3.14152
    D9        1.12414  -0.00015   0.00000   0.00042   0.00042   1.12456
   D10       -1.12422   0.00014   0.00000  -0.00026  -0.00027  -1.12449
   D11       -0.00028   0.00001   0.00000   0.00057   0.00057   0.00029
   D12       -2.01772  -0.00014   0.00000   0.00083   0.00084  -2.01688
   D13        2.01697   0.00015   0.00000   0.00026   0.00025   2.01722
   D14        3.14159   0.00000   0.00000   0.00013   0.00012  -3.14147
   D15        1.12415  -0.00015   0.00000   0.00039   0.00039   1.12455
   D16       -1.12434   0.00014   0.00000  -0.00018  -0.00019  -1.12453
   D17        0.00025  -0.00001   0.00000  -0.00050  -0.00050  -0.00025
   D18        2.02542   0.00050   0.00000   0.00796   0.00796   2.03338
   D19       -2.02500  -0.00050   0.00000  -0.00878  -0.00877  -2.03377
   D20        2.02555   0.00049   0.00000   0.00788   0.00788   2.03343
   D21       -2.23246   0.00100   0.00000   0.01634   0.01633  -2.21613
   D22        0.00030   0.00000   0.00000  -0.00039  -0.00039  -0.00009
   D23       -2.02495  -0.00050   0.00000  -0.00877  -0.00876  -2.03371
   D24        0.00023   0.00000   0.00000  -0.00031  -0.00031  -0.00008
   D25        2.23299  -0.00100   0.00000  -0.01705  -0.01704   2.21595
         Item               Value     Threshold  Converged?
 Maximum Force            0.009131     0.000450     NO 
 RMS     Force            0.002546     0.000300     NO 
 Maximum Displacement     0.041929     0.001800     NO 
 RMS     Displacement     0.012455     0.001200     NO 
 Predicted change in Energy=-5.494765D-04
 GradGradGradGradGradGradGradGradGradGradGradGradGradGradGradGradGradGrad

                          Input orientation:                          
 ---------------------------------------------------------------------
 Center     Atomic      Atomic             Coordinates (Angstroms)
 Number     Number       Type             X           Y           Z
 ---------------------------------------------------------------------
      1          6           0        0.789171    0.667904    0.000154
      2          6           0        0.789098   -0.668002   -0.000184
      3          6           0       -0.722003   -0.783270    0.000008
      4          6           0       -0.721919    0.783352   -0.000041
      5          1           0        1.569633    1.418524    0.000289
      6          1           0        1.569488   -1.418703   -0.000355
      7          1           0       -1.164576   -1.242755    0.887090
      8          1           0       -1.164636   -1.242630   -0.887101
      9          1           0       -1.164410    1.242846   -0.887171
     10          1           0       -1.164547    1.242836    0.887011
 ---------------------------------------------------------------------
                    Distance matrix (angstroms):
                    1          2          3          4          5
     1  C    0.000000
     2  C    1.335906   0.000000
     3  C    2.095126   1.515491   0.000000
     4  C    1.515494   2.095138   1.566623   0.000000
     5  H    1.082844   2.227741   3.177970   2.377952   0.000000
     6  H    2.227739   1.082848   2.377962   3.177986   2.837227
     7  H    2.873047   2.221359   1.092663   2.255672   3.917234
     8  H    2.873103   2.221237   1.092656   2.255544   3.917324
     9  H    2.221347   2.873026   2.255650   1.092672   2.879833
    10  H    2.221278   2.873177   2.255599   1.092660   2.879737
                    6          7          8          9         10
     6  H    0.000000
     7  H    2.879865   0.000000
     8  H    2.879714   1.774191   0.000000
     9  H    3.917203   3.053885   2.485476   0.000000
    10  H    3.917417   2.485591   3.053689   1.774182   0.000000
 Stoichiometry    C4H6
 Framework group  C1[X(C4H6)]
 Deg. of freedom    24
 Full point group                 C1      NOp   1
 Largest Abelian subgroup         C1      NOp   1
 Largest concise Abelian subgroup C1      NOp   1
                         Standard orientation:                         
 ---------------------------------------------------------------------
 Center     Atomic      Atomic             Coordinates (Angstroms)
 Number     Number       Type             X           Y           Z
 ---------------------------------------------------------------------
      1          6           0       -0.812797    0.668073   -0.000175
      2          6           0       -0.813003   -0.667833    0.000163
      3          6           0        0.698073   -0.783417   -0.000028
      4          6           0        0.698317    0.783206    0.000021
      5          1           0       -1.593101    1.418857   -0.000309
      6          1           0       -1.593550   -1.418370    0.000335
      7          1           0        1.140551   -1.242994   -0.887110
      8          1           0        1.140610   -1.242869    0.887081
      9          1           0        1.140905    1.242606    0.887151
     10          1           0        1.141042    1.242597   -0.887031
 ---------------------------------------------------------------------
 Rotational constants (GHZ):          12.9955176          12.3083090           6.8661926
 Standard basis: def2TZVP (5D, 7F)
 There are   180 symmetry adapted cartesian basis functions of A   symmetry.
 There are   160 symmetry adapted basis functions of A   symmetry.
   160 basis functions,   252 primitive gaussians,   180 cartesian basis functions
    15 alpha electrons       15 beta electrons
       nuclear repulsion energy       113.3523970691 Hartrees.
 NAtoms=   10 NActive=   10 NUniq=   10 SFac= 1.00D+00 NAtFMM=   60 NAOKFM=F Big=F
 Integral buffers will be    131072 words long.
 Raffenetti 2 integral format.
 Two-electron integral symmetry is turned on.
 One-electron integrals computed using PRISM.
   1 Symmetry operations used in ECPInt.
 ECPInt:  NShTT=    2346 NPrTT=    6892 LenC2=    2342 LenP2D=    6079.
 LDataN:  DoStor=T MaxTD1= 6 Len=  172
 NBasis=   160 RedAO= T EigKep=  4.97D-05  NBF=   160
 NBsUse=   160 1.00D-06 EigRej= -1.00D+00 NBFU=   160
 Initial guess from the checkpoint file:  "/tmp/Gau-3073262.chk"
 B after Tr=     0.000000   -0.000000   -0.000000
         Rot=    1.000000    0.000016   -0.000000    0.000383 Ang=   0.04 deg.
 ExpMin= 9.52D-02 ExpMax= 1.36D+04 ExpMxC= 4.63D+02 IAcc=3 IRadAn=         5 AccDes= 0.00D+00
 Harris functional with IExCor=  402 and IRadAn=       5 diagonalized for initial guess.
 HarFok:  IExCor=  402 AccDes= 0.00D+00 IRadAn=         5 IDoV= 1 UseB2=F ITyADJ=14
 ICtDFT=  3500011 ScaDFX=  1.000000  1.000000  1.000000  1.000000
 FoFCou: FMM=F IPFlag=           0 FMFlag=      100000 FMFlg1=           0
         NFxFlg=           0 DoJE=T BraDBF=F KetDBF=T FulRan=T
         wScrn=  0.000000 ICntrl=       500 IOpCl=  0 I1Cent=   200000004 NGrid=           0
         NMat0=    1 NMatS0=      1 NMatT0=    0 NMatD0=    1 NMtDS0=    0 NMtDT0=    0
 Petite list used in FoFCou.
 Keep R1 ints in memory in canonical form, NReq=99107988.
 Requested convergence on RMS density matrix=1.00D-08 within 128 cycles.
 Requested convergence on MAX density matrix=1.00D-06.
 Requested convergence on             energy=1.00D-06.
 No special actions if energy rises.
 Integral accuracy reduced to 1.0D-05 until final iterations.
 Initial convergence to 1.0D-05 achieved.  Increase integral accuracy.
 SCF Done:  E(RB3LYP) =  -156.033562710     A.U. after    9 cycles
            NFock=  9  Conv=0.93D-08     -V/T= 2.0056
   1 Symmetry operations used in ECPInt.
 ECPInt:  NShTT=    2346 NPrTT=    6892 LenC2=    2342 LenP2D=    6079.
 LDataN:  DoStor=T MaxTD1= 7 Len=  274
 Calling FoFJK, ICntrl=      2127 FMM=F ISym2X=0 I1Cent= 0 IOpClX= 0 NMat=1 NMatS=1 NMatT=0.
 ***** Axes restored to original set *****
 -------------------------------------------------------------------
 Center     Atomic                   Forces (Hartrees/Bohr)
 Number     Number              X              Y              Z
 -------------------------------------------------------------------
      1        6          -0.000553837   -0.000387756   -0.000032543
      2        6          -0.000551360    0.000391147    0.000034122
      3        6           0.000113743   -0.000984798   -0.000047467
      4        6           0.000114391    0.000987581    0.000040683
      5        1           0.000406389   -0.000588218   -0.000002086
      6        1           0.000403421    0.000589127    0.000002559
      7        1           0.000022744    0.000089274   -0.000075714
      8        1           0.000007990    0.000074229    0.000076203
      9        1           0.000024848   -0.000090840    0.000079723
     10        1           0.000011670   -0.000079747   -0.000075479
 -------------------------------------------------------------------
 Cartesian Forces:  Max     0.000987581 RMS     0.000363565

 GradGradGradGradGradGradGradGradGradGradGradGradGradGradGradGradGradGrad
 Berny optimization.
 Using GEDIIS/GDIIS optimizer.
 FormGI is forming the generalized inverse of G from B-inverse, IUseBI=4.
 Internal  Forces:  Max     0.000909827 RMS     0.000278862
 Search for a local minimum.
 Step number   2 out of a maximum of   63
 All quantities printed in internal units (Hartrees-Bohrs-Radians)
 Mixed Optimization -- En-DIIS/RFO-DIIS
 Update second derivatives using D2CorX and points    1    2
 DE= -5.59D-04 DEPred=-5.49D-04 R= 1.02D+00
 TightC=F SS=  1.41D+00  RLast= 6.80D-02 DXNew= 5.0454D-01 2.0390D-01
 Trust test= 1.02D+00 RLast= 6.80D-02 DXMaxT set to 3.00D-01
 ITU=  1  0
 Use linear search instead of GDIIS.
     Eigenvalues ---    0.00676   0.01312   0.01903   0.03915   0.04892
     Eigenvalues ---    0.04924   0.05678   0.07288   0.07382   0.07789
     Eigenvalues ---    0.07928   0.15015   0.16000   0.21633   0.25486
     Eigenvalues ---    0.28982   0.32666   0.34923   0.34930   0.34938
     Eigenvalues ---    0.35180   0.36595   0.37156   0.56664
 RFO step:  Lambda=-1.93417982D-05 EMin= 6.75608091D-03
 Quartic linear search produced a step of  0.03263.
 Iteration  1 RMS(Cart)=  0.00222682 RMS(Int)=  0.00000582
 Iteration  2 RMS(Cart)=  0.00000552 RMS(Int)=  0.00000125
 Iteration  3 RMS(Cart)=  0.00000000 RMS(Int)=  0.00000125
 Variable       Old X    -DE/DX   Delta X   Delta X   Delta X     New X
                                 (Linear)    (Quad)   (Total)
    R1        2.52450  -0.00091   0.00044  -0.00199  -0.00155   2.52295
    R2        2.86387  -0.00014   0.00075  -0.00083  -0.00008   2.86379
    R3        2.04628  -0.00011   0.00048  -0.00054  -0.00006   2.04622
    R4        2.86386  -0.00014   0.00075  -0.00082  -0.00007   2.86379
    R5        2.04629  -0.00012   0.00048  -0.00055  -0.00007   2.04622
    R6        2.96049   0.00075   0.00099   0.00285   0.00384   2.96433
    R7        2.06483  -0.00011   0.00023  -0.00042  -0.00019   2.06464
    R8        2.06482  -0.00010   0.00023  -0.00039  -0.00016   2.06466
    R9        2.06485  -0.00011   0.00022  -0.00043  -0.00021   2.06464
   R10        2.06483  -0.00010   0.00022  -0.00039  -0.00017   2.06466
    A1        1.64699   0.00029   0.00008   0.00086   0.00094   1.64793
    A2        2.33676  -0.00087  -0.00038  -0.00494  -0.00532   2.33144
    A3        2.29943   0.00058   0.00031   0.00408   0.00439   2.30382
    A4        1.64698   0.00030   0.00007   0.00088   0.00095   1.64794
    A5        2.33675  -0.00087  -0.00038  -0.00494  -0.00532   2.33143
    A6        2.29945   0.00057   0.00031   0.00406   0.00437   2.30382
    A7        1.49461  -0.00030  -0.00007  -0.00088  -0.00095   1.49366
    A8        2.02190   0.00009   0.00028   0.00026   0.00054   2.02243
    A9        2.02172   0.00011   0.00028   0.00050   0.00077   2.02250
   A10        2.00486   0.00005  -0.00001  -0.00040  -0.00041   2.00446
   A11        2.00469   0.00007  -0.00001  -0.00014  -0.00016   2.00453
   A12        1.89469  -0.00004  -0.00036   0.00040   0.00004   1.89473
   A13        1.49460  -0.00029  -0.00008  -0.00086  -0.00094   1.49366
   A14        2.02186   0.00009   0.00028   0.00027   0.00055   2.02242
   A15        2.02177   0.00011   0.00028   0.00047   0.00074   2.02252
   A16        2.00482   0.00005  -0.00001  -0.00038  -0.00039   2.00443
   A17        2.00476   0.00006  -0.00002  -0.00019  -0.00021   2.00455
   A18        1.89466  -0.00004  -0.00036   0.00043   0.00006   1.89472
    D1       -0.00029   0.00002  -0.00002   0.00082   0.00081   0.00051
    D2        3.14147   0.00001  -0.00000   0.00028   0.00028  -3.14144
    D3        3.14152   0.00001  -0.00001   0.00026   0.00026  -3.14141
    D4        0.00009  -0.00000   0.00001  -0.00028  -0.00027  -0.00017
    D5        0.00029  -0.00001   0.00002  -0.00080  -0.00078  -0.00049
    D6       -2.01682   0.00007   0.00003   0.00002   0.00004  -2.01678
    D7        2.01731  -0.00008   0.00000  -0.00137  -0.00137   2.01594
    D8       -3.14152  -0.00001   0.00001  -0.00025  -0.00024   3.14142
    D9        1.12456   0.00008   0.00001   0.00056   0.00058   1.12514
   D10       -1.12449  -0.00007  -0.00001  -0.00083  -0.00084  -1.12533
   D11        0.00029  -0.00001   0.00002  -0.00080  -0.00078  -0.00049
   D12       -2.01688   0.00007   0.00003   0.00005   0.00008  -2.01680
   D13        2.01722  -0.00007   0.00001  -0.00132  -0.00132   2.01591
   D14       -3.14147  -0.00001   0.00000  -0.00028  -0.00027   3.14144
   D15        1.12455   0.00008   0.00001   0.00057   0.00059   1.12513
   D16       -1.12453  -0.00007  -0.00001  -0.00081  -0.00081  -1.12534
   D17       -0.00025   0.00001  -0.00002   0.00070   0.00069   0.00043
   D18        2.03338  -0.00002   0.00026   0.00054   0.00080   2.03418
   D19       -2.03377   0.00003  -0.00029   0.00062   0.00034  -2.03344
   D20        2.03343  -0.00002   0.00026   0.00051   0.00077   2.03420
   D21       -2.21613  -0.00005   0.00053   0.00035   0.00088  -2.21525
   D22       -0.00009  -0.00000  -0.00001   0.00043   0.00042   0.00032
   D23       -2.03371   0.00002  -0.00029   0.00059   0.00030  -2.03341
   D24       -0.00008  -0.00000  -0.00001   0.00043   0.00042   0.00034
   D25        2.21595   0.00004  -0.00056   0.00051  -0.00004   2.21591
         Item               Value     Threshold  Converged?
 Maximum Force            0.000910     0.000450     NO 
 RMS     Force            0.000279     0.000300     YES
 Maximum Displacement     0.008699     0.001800     NO 
 RMS     Displacement     0.002228     0.001200     NO 
 Predicted change in Energy=-1.016662D-05
 GradGradGradGradGradGradGradGradGradGradGradGradGradGradGradGradGradGrad

                          Input orientation:                          
 ---------------------------------------------------------------------
 Center     Atomic      Atomic             Coordinates (Angstroms)
 Number     Number       Type             X           Y           Z
 ---------------------------------------------------------------------
      1          6           0        0.788381    0.667501   -0.000212
      2          6           0        0.788304   -0.667585    0.000174
      3          6           0       -0.722648   -0.784285   -0.000186
      4          6           0       -0.722557    0.784368    0.000133
      5          1           0        1.572806    1.413930   -0.000364
      6          1           0        1.572650   -1.414100    0.000316
      7          1           0       -1.165646   -1.243528    0.886683
      8          1           0       -1.165312   -1.243245   -0.887384
      9          1           0       -1.165480    1.243640   -0.886759
     10          1           0       -1.165198    1.243403    0.887300
 ---------------------------------------------------------------------
                    Distance matrix (angstroms):
                    1          2          3          4          5
     1  C    0.000000
     2  C    1.335086   0.000000
     3  C    2.095445   1.515452   0.000000
     4  C    1.515451   2.095440   1.568653   0.000000
     5  H    1.082812   2.224444   3.178248   2.380135   0.000000
     6  H    2.224441   1.082812   2.380139   3.178245   2.828030
     7  H    2.873470   2.221605   1.092560   2.257136   3.917660
     8  H    2.873141   2.221657   1.092573   2.257196   3.917228
     9  H    2.221593   2.873448   2.257121   1.092560   2.883211
    10  H    2.221668   2.873158   2.257211   1.092570   2.883348
                    6          7          8          9         10
     6  H    0.000000
     7  H    2.883229   0.000000
     8  H    2.883339   1.774068   0.000000
     9  H    3.917632   3.054685   2.486885   0.000000
    10  H    3.917253   2.486931   3.054983   1.774059   0.000000
 Stoichiometry    C4H6
 Framework group  C1[X(C4H6)]
 Deg. of freedom    24
 Full point group                 C1      NOp   1
 Largest Abelian subgroup         C1      NOp   1
 Largest concise Abelian subgroup C1      NOp   1
                         Standard orientation:                         
 ---------------------------------------------------------------------
 Center     Atomic      Atomic             Coordinates (Angstroms)
 Number     Number       Type             X           Y           Z
 ---------------------------------------------------------------------
      1          6           0       -0.812602    0.667525    0.000187
      2          6           0       -0.812570   -0.667561   -0.000199
      3          6           0        0.698378   -0.784312    0.000161
      4          6           0        0.698340    0.784342   -0.000158
      5          1           0       -1.597003    1.413981    0.000339
      6          1           0       -1.596941   -1.414050   -0.000342
      7          1           0        1.141361   -1.243569   -0.886709
      8          1           0        1.141027   -1.243286    0.887359
      9          1           0        1.141278    1.243599    0.886734
     10          1           0        1.140996    1.243362   -0.887325
 ---------------------------------------------------------------------
 Rotational constants (GHZ):          12.9937629          12.3022882           6.8637471
 Standard basis: def2TZVP (5D, 7F)
 There are   180 symmetry adapted cartesian basis functions of A   symmetry.
 There are   160 symmetry adapted basis functions of A   symmetry.
   160 basis functions,   252 primitive gaussians,   180 cartesian basis functions
    15 alpha electrons       15 beta electrons
       nuclear repulsion energy       113.3405693136 Hartrees.
 NAtoms=   10 NActive=   10 NUniq=   10 SFac= 1.00D+00 NAtFMM=   60 NAOKFM=F Big=F
 Integral buffers will be    131072 words long.
 Raffenetti 2 integral format.
 Two-electron integral symmetry is turned on.
 One-electron integrals computed using PRISM.
   1 Symmetry operations used in ECPInt.
 ECPInt:  NShTT=    2346 NPrTT=    6892 LenC2=    2342 LenP2D=    6079.
 LDataN:  DoStor=T MaxTD1= 6 Len=  172
 NBasis=   160 RedAO= T EigKep=  4.96D-05  NBF=   160
 NBsUse=   160 1.00D-06 EigRej= -1.00D+00 NBFU=   160
 Initial guess from the checkpoint file:  "/tmp/Gau-3073262.chk"
 B after Tr=     0.000000    0.000000    0.000000
         Rot=    1.000000   -0.000019    0.000001   -0.000088 Ang=  -0.01 deg.
 Keep R1 ints in memory in canonical form, NReq=99107988.
 Requested convergence on RMS density matrix=1.00D-08 within 128 cycles.
 Requested convergence on MAX density matrix=1.00D-06.
 Requested convergence on             energy=1.00D-06.
 No special actions if energy rises.
 SCF Done:  E(RB3LYP) =  -156.033575978     A.U. after    7 cycles
            NFock=  7  Conv=0.46D-08     -V/T= 2.0056
   1 Symmetry operations used in ECPInt.
 ECPInt:  NShTT=    2346 NPrTT=    6892 LenC2=    2342 LenP2D=    6079.
 LDataN:  DoStor=T MaxTD1= 7 Len=  274
 Calling FoFJK, ICntrl=      2127 FMM=F ISym2X=0 I1Cent= 0 IOpClX= 0 NMat=1 NMatS=1 NMatT=0.
 ***** Axes restored to original set *****
 -------------------------------------------------------------------
 Center     Atomic                   Forces (Hartrees/Bohr)
 Number     Number              X              Y              Z
 -------------------------------------------------------------------
      1        6          -0.000298379    0.000073142    0.000051982
      2        6          -0.000296683   -0.000073791   -0.000051218
      3        6           0.000109072   -0.000273730    0.000059927
      4        6           0.000108117    0.000274185   -0.000063416
      5        1           0.000119681   -0.000223115    0.000002678
      6        1           0.000119015    0.000223033   -0.000002447
      7        1           0.000026791    0.000071901   -0.000023447
      8        1           0.000042953    0.000087959    0.000028215
      9        1           0.000026305   -0.000071167    0.000023147
     10        1           0.000043128   -0.000088416   -0.000025421
 -------------------------------------------------------------------
 Cartesian Forces:  Max     0.000298379 RMS     0.000133658

 GradGradGradGradGradGradGradGradGradGradGradGradGradGradGradGradGradGrad
 Berny optimization.
 Using GEDIIS/GDIIS optimizer.
 FormGI is forming the generalized inverse of G from B-inverse, IUseBI=4.
 Internal  Forces:  Max     0.000279074 RMS     0.000089586
 Search for a local minimum.
 Step number   3 out of a maximum of   63
 All quantities printed in internal units (Hartrees-Bohrs-Radians)
 Mixed Optimization -- En-DIIS/RFO-DIIS
 Swapping is turned off.
 Update second derivatives using D2CorX and points    1    2    3
 DE= -1.33D-05 DEPred=-1.02D-05 R= 1.31D+00
 TightC=F SS=  1.41D+00  RLast= 1.14D-02 DXNew= 5.0454D-01 3.4059D-02
 Trust test= 1.31D+00 RLast= 1.14D-02 DXMaxT set to 3.00D-01
 ITU=  1  1  0
     Eigenvalues ---    0.00682   0.01305   0.01892   0.03922   0.04836
     Eigenvalues ---    0.04890   0.05686   0.07286   0.07361   0.07569
     Eigenvalues ---    0.07923   0.10980   0.16000   0.21633   0.25741
     Eigenvalues ---    0.28984   0.32956   0.34925   0.34931   0.34941
     Eigenvalues ---    0.35154   0.36595   0.37150   0.56188
 En-DIIS/RFO-DIIS/Sim-DIIS IScMMF=       -3 using points:     3    2
 RFO step:  Lambda=-3.75667231D-06.
 DidBck=F Rises=F RFO-DIIS coefs:    1.38266   -0.38266
 Iteration  1 RMS(Cart)=  0.00132580 RMS(Int)=  0.00000204
 Iteration  2 RMS(Cart)=  0.00000184 RMS(Int)=  0.00000102
 Iteration  3 RMS(Cart)=  0.00000000 RMS(Int)=  0.00000102
 Variable       Old X    -DE/DX   Delta X   Delta X   Delta X     New X
                                 (Linear)    (Quad)   (Total)
    R1        2.52295  -0.00017  -0.00059   0.00014  -0.00046   2.52249
    R2        2.86379  -0.00018  -0.00003  -0.00058  -0.00061   2.86318
    R3        2.04622  -0.00007  -0.00002  -0.00011  -0.00013   2.04608
    R4        2.86379  -0.00018  -0.00003  -0.00058  -0.00061   2.86318
    R5        2.04622  -0.00007  -0.00003  -0.00011  -0.00014   2.04608
    R6        2.96433   0.00013   0.00147  -0.00010   0.00136   2.96569
    R7        2.06464  -0.00006  -0.00007  -0.00012  -0.00019   2.06445
    R8        2.06466  -0.00008  -0.00006  -0.00020  -0.00026   2.06440
    R9        2.06464  -0.00006  -0.00008  -0.00011  -0.00019   2.06445
   R10        2.06466  -0.00008  -0.00007  -0.00019  -0.00025   2.06440
    A1        1.64793   0.00006   0.00036  -0.00002   0.00034   1.64827
    A2        2.33144  -0.00028  -0.00204  -0.00072  -0.00276   2.32868
    A3        2.30382   0.00022   0.00168   0.00074   0.00242   2.30624
    A4        1.64794   0.00006   0.00036  -0.00003   0.00033   1.64827
    A5        2.33143  -0.00028  -0.00204  -0.00071  -0.00275   2.32868
    A6        2.30382   0.00022   0.00167   0.00075   0.00242   2.30624
    A7        1.49366  -0.00006  -0.00037   0.00003  -0.00033   1.49332
    A8        2.02243   0.00003   0.00021   0.00026   0.00046   2.02290
    A9        2.02250   0.00001   0.00030  -0.00018   0.00011   2.02261
   A10        2.00446   0.00000  -0.00016  -0.00018  -0.00034   2.00412
   A11        2.00453  -0.00002  -0.00006  -0.00066  -0.00072   2.00380
   A12        1.89473   0.00003   0.00002   0.00055   0.00057   1.89530
   A13        1.49366  -0.00006  -0.00036   0.00002  -0.00034   1.49332
   A14        2.02242   0.00003   0.00021   0.00026   0.00048   2.02289
   A15        2.02252   0.00001   0.00029  -0.00019   0.00010   2.02261
   A16        2.00443   0.00000  -0.00015  -0.00017  -0.00032   2.00411
   A17        2.00455  -0.00002  -0.00008  -0.00067  -0.00075   2.00381
   A18        1.89472   0.00003   0.00002   0.00055   0.00058   1.89530
    D1        0.00051  -0.00002   0.00031  -0.00207  -0.00176  -0.00125
    D2       -3.14144  -0.00001   0.00011  -0.00066  -0.00055   3.14120
    D3       -3.14141  -0.00001   0.00010  -0.00067  -0.00057   3.14120
    D4       -0.00017   0.00000  -0.00010   0.00075   0.00064   0.00047
    D5       -0.00049   0.00002  -0.00030   0.00200   0.00170   0.00121
    D6       -2.01678   0.00005   0.00002   0.00215   0.00216  -2.01461
    D7        2.01594  -0.00003  -0.00052   0.00123   0.00071   2.01665
    D8        3.14142   0.00001  -0.00009   0.00063   0.00054  -3.14123
    D9        1.12514   0.00003   0.00022   0.00078   0.00100   1.12613
   D10       -1.12533  -0.00005  -0.00032  -0.00014  -0.00046  -1.12579
   D11       -0.00049   0.00002  -0.00030   0.00200   0.00170   0.00121
   D12       -2.01680   0.00005   0.00003   0.00215   0.00218  -2.01462
   D13        2.01591  -0.00003  -0.00050   0.00125   0.00074   2.01665
   D14        3.14144   0.00001  -0.00010   0.00062   0.00052  -3.14122
   D15        1.12513   0.00003   0.00022   0.00077   0.00100   1.12613
   D16       -1.12534  -0.00004  -0.00031  -0.00013  -0.00044  -1.12578
   D17        0.00043  -0.00002   0.00026  -0.00176  -0.00150  -0.00107
   D18        2.03418  -0.00002   0.00031  -0.00148  -0.00118   2.03300
   D19       -2.03344   0.00000   0.00013  -0.00147  -0.00134  -2.03478
   D20        2.03420  -0.00002   0.00029  -0.00149  -0.00120   2.03300
   D21       -2.21525  -0.00001   0.00034  -0.00121  -0.00087  -2.21612
   D22        0.00032   0.00001   0.00016  -0.00119  -0.00103  -0.00071
   D23       -2.03341   0.00000   0.00012  -0.00148  -0.00137  -2.03477
   D24        0.00034   0.00001   0.00016  -0.00120  -0.00104  -0.00071
   D25        2.21591   0.00002  -0.00002  -0.00119  -0.00120   2.21471
         Item               Value     Threshold  Converged?
 Maximum Force            0.000279     0.000450     YES
 RMS     Force            0.000090     0.000300     YES
 Maximum Displacement     0.004413     0.001800     NO 
 RMS     Displacement     0.001326     0.001200     NO 
 Predicted change in Energy=-1.878621D-06
 GradGradGradGradGradGradGradGradGradGradGradGradGradGradGradGradGradGrad

                          Input orientation:                          
 ---------------------------------------------------------------------
 Center     Atomic      Atomic             Coordinates (Angstroms)
 Number     Number       Type             X           Y           Z
 ---------------------------------------------------------------------
      1          6           0        0.787817    0.667380    0.000594
      2          6           0        0.787743   -0.667464   -0.000638
      3          6           0       -0.722849   -0.784644    0.000190
      4          6           0       -0.722762    0.784731   -0.000256
      5          1           0        1.574245    1.411595    0.001101
      6          1           0        1.574088   -1.411768   -0.001136
      7          1           0       -1.165481   -1.243077    0.887534
      8          1           0       -1.166148   -1.243262   -0.886700
      9          1           0       -1.165327    1.243210   -0.887611
     10          1           0       -1.166026    1.243400    0.886623
 ---------------------------------------------------------------------
                    Distance matrix (angstroms):
                    1          2          3          4          5
     1  C    0.000000
     2  C    1.334844   0.000000
     3  C    2.095348   1.515130   0.000000
     4  C    1.515130   2.095351   1.569375   0.000000
     5  H    1.082741   2.222853   3.178067   2.381009   0.000000
     6  H    2.222854   1.082741   2.381009   3.178070   2.823364
     7  H    2.872609   2.221546   1.092458   2.257472   3.916523
     8  H    2.873294   2.221337   1.092436   2.257239   3.917424
     9  H    2.221544   2.872608   2.257469   1.092458   2.885034
    10  H    2.221339   2.873298   2.257240   1.092435   2.884705
                    6          7          8          9         10
     6  H    0.000000
     7  H    2.885036   0.000000
     8  H    2.884703   1.774234   0.000000
     9  H    3.916522   3.054957   2.486472   0.000000
    10  H    3.917430   2.486477   3.054203   1.774234   0.000000
 Stoichiometry    C4H6
 Framework group  C1[X(C4H6)]
 Deg. of freedom    24
 Full point group                 C1      NOp   1
 Largest Abelian subgroup         C1      NOp   1
 Largest concise Abelian subgroup C1      NOp   1
                         Standard orientation:                         
 ---------------------------------------------------------------------
 Center     Atomic      Atomic             Coordinates (Angstroms)
 Number     Number       Type             X           Y           Z
 ---------------------------------------------------------------------
      1          6           0       -0.812265    0.667437   -0.000479
      2          6           0       -0.812291   -0.667407    0.000478
      3          6           0        0.698292   -0.784700   -0.000384
      4          6           0        0.698322    0.784675    0.000384
      5          1           0       -1.598638    1.411711   -0.000828
      6          1           0       -1.598692   -1.411652    0.000830
      7          1           0        1.140883   -1.242984   -0.887827
      8          1           0        1.141563   -1.243533    0.886407
      9          1           0        1.140928    1.242938    0.887829
     10          1           0        1.141614    1.243492   -0.886405
 ---------------------------------------------------------------------
 Rotational constants (GHZ):          12.9954768          12.3026815           6.8644636
 Standard basis: def2TZVP (5D, 7F)
 There are   180 symmetry adapted cartesian basis functions of A   symmetry.
 There are   160 symmetry adapted basis functions of A   symmetry.
   160 basis functions,   252 primitive gaussians,   180 cartesian basis functions
    15 alpha electrons       15 beta electrons
       nuclear repulsion energy       113.3471079920 Hartrees.
 NAtoms=   10 NActive=   10 NUniq=   10 SFac= 1.00D+00 NAtFMM=   60 NAOKFM=F Big=F
 Integral buffers will be    131072 words long.
 Raffenetti 2 integral format.
 Two-electron integral symmetry is turned on.
 One-electron integrals computed using PRISM.
   1 Symmetry operations used in ECPInt.
 ECPInt:  NShTT=    2346 NPrTT=    6892 LenC2=    2342 LenP2D=    6079.
 LDataN:  DoStor=T MaxTD1= 6 Len=  172
 NBasis=   160 RedAO= T EigKep=  4.94D-05  NBF=   160
 NBsUse=   160 1.00D-06 EigRej= -1.00D+00 NBFU=   160
 Initial guess from the checkpoint file:  "/tmp/Gau-3073262.chk"
 B after Tr=    -0.000000    0.000000   -0.000000
         Rot=    1.000000   -0.000057   -0.000003    0.000021 Ang=  -0.01 deg.
 Keep R1 ints in memory in canonical form, NReq=99107988.
 Requested convergence on RMS density matrix=1.00D-08 within 128 cycles.
 Requested convergence on MAX density matrix=1.00D-06.
 Requested convergence on             energy=1.00D-06.
 No special actions if energy rises.
 SCF Done:  E(RB3LYP) =  -156.033577572     A.U. after    7 cycles
            NFock=  7  Conv=0.35D-08     -V/T= 2.0056
   1 Symmetry operations used in ECPInt.
 ECPInt:  NShTT=    2346 NPrTT=    6892 LenC2=    2342 LenP2D=    6079.
 LDataN:  DoStor=T MaxTD1= 7 Len=  274
 Calling FoFJK, ICntrl=      2127 FMM=F ISym2X=0 I1Cent= 0 IOpClX= 0 NMat=1 NMatS=1 NMatT=0.
 ***** Axes restored to original set *****
 -------------------------------------------------------------------
 Center     Atomic                   Forces (Hartrees/Bohr)
 Number     Number              X              Y              Z
 -------------------------------------------------------------------
      1        6          -0.000030375    0.000090379   -0.000131365
      2        6          -0.000030875   -0.000089928    0.000131441
      3        6           0.000012165    0.000029970   -0.000163962
      4        6           0.000012715   -0.000031012    0.000163397
      5        1          -0.000002139   -0.000004830   -0.000005932
      6        1          -0.000002353    0.000005074    0.000005998
      7        1           0.000031437    0.000033255    0.000003452
      8        1          -0.000011010   -0.000009626   -0.000007810
      9        1           0.000031394   -0.000033055   -0.000003403
     10        1          -0.000010960    0.000009772    0.000008184
 -------------------------------------------------------------------
 Cartesian Forces:  Max     0.000163962 RMS     0.000061455

 GradGradGradGradGradGradGradGradGradGradGradGradGradGradGradGradGradGrad
 Berny optimization.
 Using GEDIIS/GDIIS optimizer.
 FormGI is forming the generalized inverse of G from B-inverse, IUseBI=4.
 Internal  Forces:  Max     0.000066380 RMS     0.000026430
 Search for a local minimum.
 Step number   4 out of a maximum of   63
 All quantities printed in internal units (Hartrees-Bohrs-Radians)
 Mixed Optimization -- En-DIIS/RFO-DIIS
 Swapping is turned off.
 Update second derivatives using D2CorX and points    1    2    3    4
 DE= -1.59D-06 DEPred=-1.88D-06 R= 8.49D-01
 TightC=F SS=  1.41D+00  RLast= 8.32D-03 DXNew= 5.0454D-01 2.4971D-02
 Trust test= 8.49D-01 RLast= 8.32D-03 DXMaxT set to 3.00D-01
 ITU=  1  1  1  0
     Eigenvalues ---    0.00768   0.01301   0.01887   0.03964   0.04847
     Eigenvalues ---    0.04891   0.05690   0.06734   0.07285   0.07909
     Eigenvalues ---    0.07921   0.10707   0.16000   0.21633   0.25666
     Eigenvalues ---    0.28985   0.31856   0.34897   0.34929   0.34933
     Eigenvalues ---    0.35017   0.36595   0.36845   0.57713
 En-DIIS/RFO-DIIS/Sim-DIIS IScMMF=       -3 using points:     4    3    2
 RFO step:  Lambda=-8.49593671D-07.
 DidBck=T Rises=F RFO-DIIS coefs:    0.46346    0.83479   -0.29824
 Iteration  1 RMS(Cart)=  0.00055445 RMS(Int)=  0.00000055
 Iteration  2 RMS(Cart)=  0.00000020 RMS(Int)=  0.00000052
 Variable       Old X    -DE/DX   Delta X   Delta X   Delta X     New X
                                 (Linear)    (Quad)   (Total)
    R1        2.52249   0.00007  -0.00022   0.00027   0.00005   2.52254
    R2        2.86318  -0.00003   0.00030  -0.00038  -0.00008   2.86310
    R3        2.04608  -0.00000   0.00005  -0.00007  -0.00002   2.04606
    R4        2.86318  -0.00003   0.00030  -0.00038  -0.00008   2.86310
    R5        2.04608  -0.00001   0.00005  -0.00007  -0.00002   2.04606
    R6        2.96569  -0.00004   0.00041  -0.00052  -0.00011   2.96558
    R7        2.06445  -0.00002   0.00005  -0.00008  -0.00004   2.06441
    R8        2.06440   0.00001   0.00009  -0.00009   0.00001   2.06441
    R9        2.06445  -0.00002   0.00004  -0.00008  -0.00004   2.06441
   R10        2.06440   0.00002   0.00009  -0.00008   0.00001   2.06441
    A1        1.64827  -0.00002   0.00010  -0.00012  -0.00003   1.64825
    A2        2.32868   0.00001  -0.00011   0.00013   0.00002   2.32870
    A3        2.30624   0.00001   0.00001  -0.00000   0.00001   2.30624
    A4        1.64827  -0.00002   0.00011  -0.00013  -0.00002   1.64824
    A5        2.32868   0.00001  -0.00011   0.00013   0.00002   2.32870
    A6        2.30624   0.00001   0.00001  -0.00000   0.00000   2.30624
    A7        1.49332   0.00002  -0.00011   0.00013   0.00003   1.49335
    A8        2.02290  -0.00003  -0.00009  -0.00008  -0.00016   2.02273
    A9        2.02261   0.00002   0.00017  -0.00006   0.00011   2.02272
   A10        2.00412  -0.00004   0.00006  -0.00024  -0.00018   2.00393
   A11        2.00380   0.00002   0.00034  -0.00023   0.00011   2.00392
   A12        1.89530   0.00001  -0.00029   0.00037   0.00008   1.89538
   A13        1.49332   0.00002  -0.00010   0.00012   0.00003   1.49335
   A14        2.02289  -0.00003  -0.00009  -0.00007  -0.00016   2.02273
   A15        2.02261   0.00002   0.00017  -0.00006   0.00011   2.02272
   A16        2.00411  -0.00004   0.00006  -0.00024  -0.00018   2.00393
   A17        2.00381   0.00002   0.00034  -0.00022   0.00011   2.00392
   A18        1.89530   0.00001  -0.00029   0.00037   0.00008   1.89538
    D1       -0.00125   0.00006   0.00119   0.00005   0.00123  -0.00002
    D2        3.14120   0.00003   0.00038   0.00001   0.00039   3.14159
    D3        3.14120   0.00002   0.00038   0.00001   0.00039  -3.14159
    D4        0.00047  -0.00001  -0.00042  -0.00002  -0.00045   0.00002
    D5        0.00121  -0.00006  -0.00115  -0.00005  -0.00119   0.00002
    D6       -2.01461  -0.00001  -0.00115   0.00017  -0.00098  -2.01559
    D7        2.01665  -0.00002  -0.00079  -0.00024  -0.00104   2.01562
    D8       -3.14123  -0.00002  -0.00036  -0.00001  -0.00037   3.14159
    D9        1.12613   0.00002  -0.00036   0.00021  -0.00015   1.12598
   D10       -1.12579   0.00001  -0.00000  -0.00021  -0.00021  -1.12600
   D11        0.00121  -0.00006  -0.00115  -0.00005  -0.00119   0.00002
   D12       -2.01462  -0.00001  -0.00115   0.00017  -0.00097  -2.01559
   D13        2.01665  -0.00002  -0.00079  -0.00024  -0.00104   2.01561
   D14       -3.14122  -0.00002  -0.00036  -0.00001  -0.00037  -3.14159
   D15        1.12613   0.00002  -0.00036   0.00021  -0.00015   1.12598
   D16       -1.12578   0.00001  -0.00000  -0.00021  -0.00021  -1.12600
   D17       -0.00107   0.00005   0.00101   0.00004   0.00105  -0.00002
   D18        2.03300   0.00002   0.00087  -0.00002   0.00085   2.03385
   D19       -2.03478   0.00002   0.00082   0.00008   0.00090  -2.03387
   D20        2.03300   0.00002   0.00087  -0.00002   0.00085   2.03385
   D21       -2.21612  -0.00002   0.00073  -0.00007   0.00066  -2.21546
   D22       -0.00071  -0.00001   0.00068   0.00003   0.00071  -0.00000
   D23       -2.03477   0.00002   0.00082   0.00008   0.00090  -2.03387
   D24       -0.00071  -0.00001   0.00068   0.00002   0.00071  -0.00000
   D25        2.21471  -0.00001   0.00063   0.00012   0.00075   2.21546
         Item               Value     Threshold  Converged?
 Maximum Force            0.000066     0.000450     YES
 RMS     Force            0.000026     0.000300     YES
 Maximum Displacement     0.001919     0.001800     NO 
 RMS     Displacement     0.000554     0.001200     YES
 Predicted change in Energy=-3.038206D-07
 GradGradGradGradGradGradGradGradGradGradGradGradGradGradGradGradGradGrad

                          Input orientation:                          
 ---------------------------------------------------------------------
 Center     Atomic      Atomic             Coordinates (Angstroms)
 Number     Number       Type             X           Y           Z
 ---------------------------------------------------------------------
      1          6           0        0.787792    0.667393    0.000031
      2          6           0        0.787717   -0.667478   -0.000075
      3          6           0       -0.722836   -0.784616   -0.000081
      4          6           0       -0.722749    0.784702    0.000014
      5          1           0        1.574197    1.411618    0.000086
      6          1           0        1.574040   -1.411791   -0.000121
      7          1           0       -1.165790   -1.243164    0.887020
      8          1           0       -1.165779   -1.243043   -0.887251
      9          1           0       -1.165636    1.243297   -0.887097
     10          1           0       -1.165656    1.243180    0.887175
 ---------------------------------------------------------------------
                    Distance matrix (angstroms):
                    1          2          3          4          5
     1  C    0.000000
     2  C    1.334871   0.000000
     3  C    2.095311   1.515089   0.000000
     4  C    1.515089   2.095313   1.569318   0.000000
     5  H    1.082730   2.222879   3.178019   2.380963   0.000000
     6  H    2.222879   1.082730   2.380963   3.178021   2.823409
     7  H    2.872884   2.221383   1.092439   2.257279   3.916893
     8  H    2.872886   2.221374   1.092440   2.257269   3.916894
     9  H    2.221383   2.872883   2.257278   1.092439   2.884807
    10  H    2.221376   2.872889   2.257270   1.092439   2.884804
                    6          7          8          9         10
     6  H    0.000000
     7  H    2.884809   0.000000
     8  H    2.884802   1.774272   0.000000
     9  H    3.916892   3.054502   2.486340   0.000000
    10  H    3.916899   2.486344   3.054487   1.774272   0.000000
 Stoichiometry    C4H6
 Framework group  C1[X(C4H6)]
 Deg. of freedom    24
 Full point group                 C1      NOp   1
 Largest Abelian subgroup         C1      NOp   1
 Largest concise Abelian subgroup C1      NOp   1
                         Standard orientation:                         
 ---------------------------------------------------------------------
 Center     Atomic      Atomic             Coordinates (Angstroms)
 Number     Number       Type             X           Y           Z
 ---------------------------------------------------------------------
      1          6           0       -0.812248    0.667445   -0.000059
      2          6           0       -0.812266   -0.667426    0.000046
      3          6           0        0.698280   -0.784668    0.000052
      4          6           0        0.698300    0.784651   -0.000042
      5          1           0       -1.598603    1.411724   -0.000115
      6          1           0       -1.598639   -1.411685    0.000092
      7          1           0        1.141202   -1.243246   -0.887049
      8          1           0        1.141191   -1.243125    0.887223
      9          1           0        1.141219    1.243215    0.887069
     10          1           0        1.141239    1.243098   -0.887203
 ---------------------------------------------------------------------
 Rotational constants (GHZ):          12.9958248          12.3032412           6.8647579
 Standard basis: def2TZVP (5D, 7F)
 There are   180 symmetry adapted cartesian basis functions of A   symmetry.
 There are   160 symmetry adapted basis functions of A   symmetry.
   160 basis functions,   252 primitive gaussians,   180 cartesian basis functions
    15 alpha electrons       15 beta electrons
       nuclear repulsion energy       113.3489722706 Hartrees.
 NAtoms=   10 NActive=   10 NUniq=   10 SFac= 1.00D+00 NAtFMM=   60 NAOKFM=F Big=F
 Integral buffers will be    131072 words long.
 Raffenetti 2 integral format.
 Two-electron integral symmetry is turned on.
 One-electron integrals computed using PRISM.
   1 Symmetry operations used in ECPInt.
 ECPInt:  NShTT=    2346 NPrTT=    6892 LenC2=    2342 LenP2D=    6079.
 LDataN:  DoStor=T MaxTD1= 6 Len=  172
 NBasis=   160 RedAO= T EigKep=  4.94D-05  NBF=   160
 NBsUse=   160 1.00D-06 EigRej= -1.00D+00 NBFU=   160
 Initial guess from the checkpoint file:  "/tmp/Gau-3073262.chk"
 B after Tr=     0.000000    0.000000   -0.000000
         Rot=    1.000000    0.000071    0.000004   -0.000003 Ang=   0.01 deg.
 Keep R1 ints in memory in canonical form, NReq=99107988.
 Requested convergence on RMS density matrix=1.00D-08 within 128 cycles.
 Requested convergence on MAX density matrix=1.00D-06.
 Requested convergence on             energy=1.00D-06.
 No special actions if energy rises.
 SCF Done:  E(RB3LYP) =  -156.033577791     A.U. after    6 cycles
            NFock=  6  Conv=0.23D-08     -V/T= 2.0056
   1 Symmetry operations used in ECPInt.
 ECPInt:  NShTT=    2346 NPrTT=    6892 LenC2=    2342 LenP2D=    6079.
 LDataN:  DoStor=T MaxTD1= 7 Len=  274
 Calling FoFJK, ICntrl=      2127 FMM=F ISym2X=0 I1Cent= 0 IOpClX= 0 NMat=1 NMatS=1 NMatT=0.
 ***** Axes restored to original set *****
 -------------------------------------------------------------------
 Center     Atomic                   Forces (Hartrees/Bohr)
 Number     Number              X              Y              Z
 -------------------------------------------------------------------
      1        6          -0.000013186    0.000056512   -0.000002757
      2        6          -0.000013538   -0.000056145    0.000002805
      3        6           0.000001422    0.000014632   -0.000003784
      4        6           0.000001734   -0.000015164    0.000003404
      5        1           0.000003806   -0.000000888    0.000000139
      6        1           0.000003724    0.000000982   -0.000000088
      7        1           0.000004386    0.000004824    0.000005251
      8        1           0.000003578    0.000003869   -0.000004862
      9        1           0.000004403   -0.000004745   -0.000005064
     10        1           0.000003670   -0.000003876    0.000004956
 -------------------------------------------------------------------
 Cartesian Forces:  Max     0.000056512 RMS     0.000015775

 GradGradGradGradGradGradGradGradGradGradGradGradGradGradGradGradGradGrad
 Berny optimization.
 Using GEDIIS/GDIIS optimizer.
 FormGI is forming the generalized inverse of G from B-inverse, IUseBI=4.
 Internal  Forces:  Max     0.000044305 RMS     0.000007684
 Search for a local minimum.
 Step number   5 out of a maximum of   63
 All quantities printed in internal units (Hartrees-Bohrs-Radians)
 Mixed Optimization -- En-DIIS/RFO-DIIS
 Swapping is turned off.
 Update second derivatives using D2CorX and points    1    2    3    4    5
 DE= -2.18D-07 DEPred=-3.04D-07 R= 7.18D-01
 Trust test= 7.18D-01 RLast= 3.97D-03 DXMaxT set to 3.00D-01
 ITU=  0  1  1  1  0
     Eigenvalues ---    0.01064   0.01301   0.01889   0.04670   0.04858
     Eigenvalues ---    0.04891   0.05690   0.07181   0.07285   0.07921
     Eigenvalues ---    0.09908   0.10788   0.16000   0.21634   0.25394
     Eigenvalues ---    0.28985   0.31471   0.34912   0.34929   0.34934
     Eigenvalues ---    0.35196   0.36595   0.36875   0.57784
 En-DIIS/RFO-DIIS/Sim-DIIS IScMMF=       -3 using points:     5    4    3    2
 RFO step:  Lambda=-7.36249729D-09.
 DidBck=F Rises=F RFO-DIIS coefs:    1.15111   -0.07514   -0.11326    0.03729
 Iteration  1 RMS(Cart)=  0.00003152 RMS(Int)=  0.00000007
 Iteration  2 RMS(Cart)=  0.00000000 RMS(Int)=  0.00000007
 Variable       Old X    -DE/DX   Delta X   Delta X   Delta X     New X
                                 (Linear)    (Quad)   (Total)
    R1        2.52254   0.00004   0.00003   0.00005   0.00008   2.52262
    R2        2.86310  -0.00001  -0.00005   0.00002  -0.00004   2.86306
    R3        2.04606   0.00000  -0.00001   0.00002   0.00000   2.04607
    R4        2.86310  -0.00001  -0.00006   0.00002  -0.00004   2.86306
    R5        2.04606   0.00000  -0.00001   0.00001   0.00000   2.04607
    R6        2.96558  -0.00001  -0.00006  -0.00001  -0.00006   2.96552
    R7        2.06441   0.00000  -0.00001   0.00001   0.00000   2.06441
    R8        2.06441   0.00000  -0.00001   0.00001   0.00000   2.06441
    R9        2.06441   0.00000  -0.00001   0.00001   0.00000   2.06441
   R10        2.06441   0.00000  -0.00001   0.00001   0.00000   2.06441
    A1        1.64825  -0.00001  -0.00001  -0.00001  -0.00003   1.64822
    A2        2.32870   0.00000  -0.00001  -0.00001  -0.00002   2.32868
    A3        2.30624   0.00001   0.00002   0.00002   0.00004   2.30628
    A4        1.64824  -0.00001  -0.00001  -0.00001  -0.00002   1.64822
    A5        2.32870   0.00000  -0.00001  -0.00001  -0.00002   2.32868
    A6        2.30624   0.00001   0.00002   0.00002   0.00004   2.30628
    A7        1.49335   0.00001   0.00001   0.00001   0.00002   1.49337
    A8        2.02273  -0.00000  -0.00001  -0.00002  -0.00003   2.02270
    A9        2.02272  -0.00000  -0.00000  -0.00002  -0.00002   2.02269
   A10        2.00393  -0.00001  -0.00004   0.00000  -0.00003   2.00390
   A11        2.00392  -0.00000  -0.00003   0.00001  -0.00002   2.00390
   A12        1.89538   0.00001   0.00005   0.00002   0.00007   1.89545
   A13        1.49335   0.00001   0.00001   0.00001   0.00003   1.49337
   A14        2.02273  -0.00000  -0.00001  -0.00002  -0.00003   2.02270
   A15        2.02272  -0.00000  -0.00000  -0.00002  -0.00003   2.02269
   A16        2.00393  -0.00001  -0.00004   0.00000  -0.00003   2.00390
   A17        2.00392  -0.00000  -0.00003   0.00001  -0.00002   2.00390
   A18        1.89538   0.00001   0.00005   0.00002   0.00007   1.89545
    D1       -0.00002   0.00000   0.00002   0.00000   0.00002   0.00000
    D2        3.14159   0.00000   0.00001  -0.00000   0.00001  -3.14159
    D3       -3.14159   0.00000   0.00001  -0.00000   0.00000  -3.14159
    D4        0.00002  -0.00000  -0.00001  -0.00001  -0.00001   0.00001
    D5        0.00002  -0.00000  -0.00002  -0.00000  -0.00002  -0.00000
    D6       -2.01559   0.00000   0.00002  -0.00001   0.00001  -2.01558
    D7        2.01562  -0.00000  -0.00005   0.00001  -0.00004   2.01557
    D8        3.14159  -0.00000  -0.00001   0.00000  -0.00000   3.14159
    D9        1.12598   0.00000   0.00003  -0.00001   0.00003   1.12601
   D10       -1.12600  -0.00000  -0.00004   0.00001  -0.00002  -1.12602
   D11        0.00002  -0.00000  -0.00002  -0.00000  -0.00002  -0.00000
   D12       -2.01559   0.00000   0.00002  -0.00001   0.00001  -2.01559
   D13        2.01561  -0.00000  -0.00005   0.00001  -0.00004   2.01557
   D14       -3.14159  -0.00000  -0.00001   0.00000  -0.00001   3.14159
   D15        1.12598   0.00000   0.00003  -0.00000   0.00003   1.12601
   D16       -1.12600  -0.00000  -0.00004   0.00001  -0.00002  -1.12602
   D17       -0.00002   0.00000   0.00002   0.00000   0.00002   0.00000
   D18        2.03385  -0.00000   0.00001  -0.00002  -0.00001   2.03384
   D19       -2.03387   0.00000   0.00002   0.00002   0.00004  -2.03383
   D20        2.03385  -0.00000   0.00001  -0.00002  -0.00001   2.03384
   D21       -2.21546  -0.00000   0.00000  -0.00004  -0.00004  -2.21550
   D22       -0.00000  -0.00000   0.00001  -0.00000   0.00001   0.00001
   D23       -2.03387   0.00000   0.00002   0.00002   0.00004  -2.03383
   D24       -0.00000  -0.00000   0.00001  -0.00000   0.00001   0.00001
   D25        2.21546   0.00000   0.00002   0.00004   0.00006   2.21552
         Item               Value     Threshold  Converged?
 Maximum Force            0.000044     0.000450     YES
 RMS     Force            0.000008     0.000300     YES
 Maximum Displacement     0.000089     0.001800     YES
 RMS     Displacement     0.000032     0.001200     YES
 Predicted change in Energy=-4.308396D-09
 Optimization completed.
    -- Stationary point found.
                           ----------------------------
                           !   Optimized Parameters   !
                           ! (Angstroms and Degrees)  !
 --------------------------                            --------------------------
 ! Name  Definition              Value          Derivative Info.                !
 --------------------------------------------------------------------------------
 ! R1    R(1,2)                  1.3349         -DE/DX =    0.0                 !
 ! R2    R(1,4)                  1.5151         -DE/DX =    0.0                 !
 ! R3    R(1,5)                  1.0827         -DE/DX =    0.0                 !
 ! R4    R(2,3)                  1.5151         -DE/DX =    0.0                 !
 ! R5    R(2,6)                  1.0827         -DE/DX =    0.0                 !
 ! R6    R(3,4)                  1.5693         -DE/DX =    0.0                 !
 ! R7    R(3,7)                  1.0924         -DE/DX =    0.0                 !
[...]
    R9        2.06441   0.00000   0.00000   0.00000   0.00000   2.06441
   R10        2.06441   0.00000   0.00000   0.00000   0.00000   2.06441
    A1        1.64825  -0.00001   0.00000  -0.00003  -0.00003   1.64821
    A2        2.32870   0.00000   0.00000  -0.00003  -0.00003   2.32867
    A3        2.30624   0.00001   0.00000   0.00006   0.00006   2.30630
    A4        1.64824  -0.00001   0.00000  -0.00003  -0.00003   1.64821
    A5        2.32870   0.00000   0.00000  -0.00003  -0.00003   2.32867
    A6        2.30624   0.00001   0.00000   0.00006   0.00006   2.30630
    A7        1.49335   0.00001   0.00000   0.00003   0.00003   1.49338
    A8        2.02273  -0.00000   0.00000  -0.00004  -0.00004   2.02269
    A9        2.02272  -0.00000   0.00000  -0.00003  -0.00003   2.02269
   A10        2.00393  -0.00001   0.00000  -0.00004  -0.00004   2.00390
   A11        2.00392  -0.00000   0.00000  -0.00002  -0.00002   2.00390
   A12        1.89538   0.00001   0.00000   0.00008   0.00008   1.89545
   A13        1.49335   0.00001   0.00000   0.00003   0.00003   1.49338
   A14        2.02273  -0.00000   0.00000  -0.00004  -0.00004   2.02269
   A15        2.02272  -0.00000   0.00000  -0.00003  -0.00003   2.02269
   A16        2.00393  -0.00001   0.00000  -0.00003  -0.00003   2.00390
   A17        2.00392  -0.00000   0.00000  -0.00002  -0.00002   2.00390
   A18        1.89538   0.00001   0.00000   0.00008   0.00008   1.89545
    D1       -0.00002   0.00000   0.00000   0.00002   0.00002   0.00000
    D2        3.14159   0.00000   0.00000   0.00000   0.00000  -3.14159
    D3       -3.14159   0.00000   0.00000  -0.00000  -0.00000  -3.14159
    D4        0.00002  -0.00000   0.00000  -0.00002  -0.00002   0.00000
    D5        0.00002  -0.00000   0.00000  -0.00002  -0.00002  -0.00000
    D6       -2.01559   0.00000   0.00000   0.00001   0.00001  -2.01558
    D7        2.01562  -0.00000   0.00000  -0.00004  -0.00004   2.01558
    D8        3.14159  -0.00000   0.00000   0.00000   0.00000   3.14159
    D9        1.12598   0.00000   0.00000   0.00003   0.00003   1.12601
   D10       -1.12600  -0.00000   0.00000  -0.00001  -0.00001  -1.12601
   D11        0.00002  -0.00000   0.00000  -0.00002  -0.00002  -0.00000
   D12       -2.01559   0.00000   0.00000   0.00001   0.00001  -2.01558
   D13        2.01561  -0.00000   0.00000  -0.00003  -0.00003   2.01558
   D14       -3.14159  -0.00000   0.00000  -0.00000  -0.00000   3.14159
   D15        1.12598   0.00000   0.00000   0.00003   0.00003   1.12601
   D16       -1.12600  -0.00000   0.00000  -0.00002  -0.00002  -1.12601
   D17       -0.00002   0.00000   0.00000   0.00002   0.00002   0.00000
   D18        2.03385  -0.00000   0.00000  -0.00002  -0.00002   2.03383
   D19       -2.03387   0.00000   0.00000   0.00004   0.00004  -2.03383
   D20        2.03385  -0.00000   0.00000  -0.00002  -0.00002   2.03383
   D21       -2.21546  -0.00000   0.00000  -0.00005  -0.00005  -2.21552
   D22       -0.00000  -0.00000   0.00000   0.00000   0.00000   0.00000
   D23       -2.03387   0.00000   0.00000   0.00004   0.00004  -2.03383
   D24       -0.00000  -0.00000   0.00000   0.00000   0.00000   0.00000
   D25        2.21546   0.00000   0.00000   0.00006   0.00006   2.21552
         Item               Value     Threshold  Converged?
 Maximum Force            0.000044     0.000450     YES
 RMS     Force            0.000008     0.000300     YES
 Maximum Displacement     0.000099     0.001800     YES
 RMS     Displacement     0.000034     0.001200     YES
 Predicted change in Energy=-5.278428D-09
 Optimization completed.
    -- Stationary point found.
                           ----------------------------
                           !   Optimized Parameters   !
                           ! (Angstroms and Degrees)  !
 --------------------------                            --------------------------
 ! Name  Definition              Value          Derivative Info.                !
 --------------------------------------------------------------------------------
 ! R1    R(1,2)                  1.3349         -DE/DX =    0.0                 !
 ! R2    R(1,4)                  1.5151         -DE/DX =    0.0                 !
 ! R3    R(1,5)                  1.0827         -DE/DX =    0.0                 !
 ! R4    R(2,3)                  1.5151         -DE/DX =    0.0                 !
 ! R5    R(2,6)                  1.0827         -DE/DX =    0.0                 !
 ! R6    R(3,4)                  1.5693         -DE/DX =    0.0                 !
 ! R7    R(3,7)                  1.0924         -DE/DX =    0.0                 !
 ! R8    R(3,8)                  1.0924         -DE/DX =    0.0                 !
 ! R9    R(4,9)                  1.0924         -DE/DX =    0.0                 !
 ! R10   R(4,10)                 1.0924         -DE/DX =    0.0                 !
 ! A1    A(2,1,4)               94.4375         -DE/DX =    0.0                 !
 ! A2    A(2,1,5)              133.4246         -DE/DX =    0.0                 !
 ! A3    A(4,1,5)              132.1378         -DE/DX =    0.0                 !
 ! A4    A(1,2,3)               94.4374         -DE/DX =    0.0                 !
 ! A5    A(1,2,6)              133.4247         -DE/DX =    0.0                 !
 ! A6    A(3,2,6)              132.1379         -DE/DX =    0.0                 !
 ! A7    A(2,3,4)               85.5626         -DE/DX =    0.0                 !
 ! A8    A(2,3,7)              115.894          -DE/DX =    0.0                 !
 ! A9    A(2,3,8)              115.8932         -DE/DX =    0.0                 !
 ! A10   A(4,3,7)              114.817          -DE/DX =    0.0                 !
 ! A11   A(4,3,8)              114.8161         -DE/DX =    0.0                 !
 ! A12   A(7,3,8)              108.5971         -DE/DX =    0.0                 !
 ! A13   A(1,4,3)               85.5625         -DE/DX =    0.0                 !
 ! A14   A(1,4,9)              115.8939         -DE/DX =    0.0                 !
 ! A15   A(1,4,10)             115.8934         -DE/DX =    0.0                 !
 ! A16   A(3,4,9)              114.8168         -DE/DX =    0.0                 !
 ! A17   A(3,4,10)             114.8162         -DE/DX =    0.0                 !
 ! A18   A(9,4,10)             108.5971         -DE/DX =    0.0                 !
 ! D1    D(4,1,2,3)             -0.0011         -DE/DX =    0.0                 !
 ! D2    D(4,1,2,6)           -180.0001         -DE/DX =    0.0                 !
 ! D3    D(5,1,2,3)           -179.9999         -DE/DX =    0.0                 !
 ! D4    D(5,1,2,6)              0.0012         -DE/DX =    0.0                 !
 ! D5    D(2,1,4,3)              0.0011         -DE/DX =    0.0                 !
 ! D6    D(2,1,4,9)           -115.4848         -DE/DX =    0.0                 !
 ! D7    D(2,1,4,10)           115.4863         -DE/DX =    0.0                 !
 ! D8    D(5,1,4,3)            179.9998         -DE/DX =    0.0                 !
 ! D9    D(5,1,4,9)             64.5139         -DE/DX =    0.0                 !
 ! D10   D(5,1,4,10)           -64.515          -DE/DX =    0.0                 !
 ! D11   D(1,2,3,4)              0.0011         -DE/DX =    0.0                 !
 ! D12   D(1,2,3,7)           -115.4851         -DE/DX =    0.0                 !
 ! D13   D(1,2,3,8)            115.4862         -DE/DX =    0.0                 !
 ! D14   D(6,2,3,4)            180.0            -DE/DX =    0.0                 !
 ! D15   D(6,2,3,7)             64.5139         -DE/DX =    0.0                 !
 ! D16   D(6,2,3,8)            -64.5149         -DE/DX =    0.0                 !
 ! D17   D(2,3,4,1)             -0.001          -DE/DX =    0.0                 !
 ! D18   D(2,3,4,9)            116.5311         -DE/DX =    0.0                 !
 ! D19   D(2,3,4,10)          -116.5323         -DE/DX =    0.0                 !
 ! D20   D(7,3,4,1)            116.5313         -DE/DX =    0.0                 !
 ! D21   D(7,3,4,9)           -126.9367         -DE/DX =    0.0                 !
 ! D22   D(7,3,4,10)            -0.0001         -DE/DX =    0.0                 !
 ! D23   D(8,3,4,1)           -116.5322         -DE/DX =    0.0                 !
 ! D24   D(8,3,4,9)             -0.0001         -DE/DX =    0.0                 !
 ! D25   D(8,3,4,10)           126.9365         -DE/DX =    0.0                 !
 --------------------------------------------------------------------------------
 GradGradGradGradGradGradGradGradGradGradGradGradGradGradGradGradGradGrad


 ----------------------------------------------------------------------

 Electric dipole moment (input orientation):
 (Debye = 10**-18 statcoulomb cm , SI units = C m)
                  (au)            (Debye)         (10**-30 SI)
   Tot        0.576722D-01      0.146588D+00      0.488965D+00
   x         -0.576722D-01     -0.146588D+00     -0.488965D+00
   y          0.000000D+00      0.000000D+00      0.000000D+00
   z          0.000000D+00      0.000000D+00      0.000000D+00

 Dipole polarizability, Alpha (input orientation).
 (esu units = cm**3 , SI units = C**2 m**2 J**-1)
 Alpha(0;0):
               (au)            (10**-24 esu)      (10**-40 SI)
   iso        0.449879D+02      0.666653D+01      0.741751D+01
   aniso      0.153303D+02      0.227171D+01      0.252762D+01
   xx         0.473527D+02      0.701694D+01      0.780740D+01
   yx         0.279412D-03      0.414046D-04      0.460689D-04
   yy         0.524163D+02      0.776730D+01      0.864229D+01
   zx         0.938762D-04      0.139110D-04      0.154781D-04
   zy         0.126887D-02      0.188027D-03      0.209208D-03
   zz         0.351948D+02      0.521533D+01      0.580284D+01

 ----------------------------------------------------------------------

 Dipole orientation:
     6          0.00004594          1.26122325         -1.48868272
     6         -0.00020889         -1.26131719         -1.48859777
     6         -0.00014932         -1.48273939          1.36592997
     6          0.00009445          1.48284269          1.36582986
     1          0.00014176          2.66763694         -2.97474309
     1         -0.00036599         -2.66783254         -2.97456231
     1          1.67623277         -2.34932498          2.20292778
     1         -1.67665468         -2.34902174          2.20299590
     1         -1.67626087          2.34947977          2.20282883
     1          1.67662753          2.34918491          2.20277734

 Electric dipole moment (dipole orientation):
 (Debye = 10**-18 statcoulomb cm , SI units = C m)
                  (au)            (Debye)         (10**-30 SI)
   Tot        0.576722D-01      0.146588D+00      0.488965D+00
   x          0.000000D+00      0.000000D+00      0.000000D+00
   y          0.000000D+00      0.000000D+00      0.000000D+00
   z          0.576722D-01      0.146588D+00      0.488965D+00

 Dipole polarizability, Alpha (dipole orientation).
 (esu units = cm**3 , SI units = C**2 m**2 J**-1)
 Alpha(0;0):
               (au)            (10**-24 esu)      (10**-40 SI)
   iso        0.449879D+02      0.666653D+01      0.741751D+01
   aniso      0.153303D+02      0.227171D+01      0.252762D+01
   xx         0.351948D+02      0.521533D+01      0.580284D+01
   yx         0.164566D-02      0.243862D-03      0.271333D-03
   yy         0.524163D+02      0.776730D+01      0.864229D+01
   zx         0.229665D-03      0.340329D-04      0.378667D-04
   zy        -0.168661D-03     -0.249930D-04     -0.278084D-04
   zz         0.473527D+02      0.701694D+01      0.780740D+01

 ----------------------------------------------------------------------
 Unable to Open any file for archive entry.
 1\1\GINC-NODE09\Freq\RB3LYP\def2TZVP\C4H6\SVSS\06-Sep-2022\0\\#N Geom=
 AllCheck Guess=TCheck SCRF=Check GenChk RB3LYP/def2TZVP Freq\\Do2_cres
 t_conf_1\\0,1\C,0.787791572,0.6673933656,0.000030671\C,0.7877174167,-0
 .6674775491,-0.0000749756\C,-0.7228361768,-0.7846160813,-0.0000810813\
 C,-0.7227488659,0.7847023734,0.0000135817\H,1.5741971365,1.4116182356,
 0.0000860206\H,1.5740397013,-1.4117906238,-0.0001208975\H,-1.165789980
 5,-1.2431643281,0.8870203625\H,-1.1657788142,-1.2430426775,-0.88725127
 14\H,-1.1656360099,1.2432972483,-0.887097272\H,-1.1656559791,1.2431800
 369,0.887174862\\Version=AS64L-G16RevC.01\State=1-A\HF=-156.0335778\RM
 SD=2.672e-09\RMSF=1.579e-05\ZeroPoint=0.0862313\Thermal=0.0900536\ETot
 =-155.9435242\HTot=-155.94258\GTot=-155.9729516\Dipole=-0.0576722,0.00
 00013,-0.0000015\DipoleDeriv=0.0638896,0.1216084,0.0000112,-0.0284487,
 0.0591222,0.000021,-0.0000012,0.0000135,-0.2578342,0.0638785,-0.121608
 3,-0.0000067,0.0284483,0.0591335,0.0000228,0.0000058,0.0000142,-0.2578
 329,0.0542175,0.0334916,0.0000026,0.0734324,-0.0626884,-0.0000189,0.00
 00081,-0.0000151,0.2247531,0.0542041,-0.0335053,-0.0000054,-0.073445,-
 0.0626793,-0.0000193,-0.0000112,-0.0000145,0.2247523,-0.0776372,-0.112
 6924,-0.0000105,-0.0862097,0.0031489,-0.0000128,-0.0000055,-0.0000071,
 0.1765935,-0.0776145,0.1127014,0.0000068,0.0862185,0.003127,-0.0000119
 ,0.0000023,-0.0000063,0.1765935,-0.0202422,-0.0868035,0.053537,-0.0569
 84,0.0002078,0.0543401,0.0938237,0.0973238,-0.0717431,-0.0202431,-0.08
 67975,-0.0535493,-0.0569733,0.0002258,-0.054331,-0.0938334,-0.0973176,
 -0.07177,-0.0202236,0.0868043,-0.0535297,0.056985,0.0001926,0.0543461,
 -0.0938116,0.0973353,-0.0717458,-0.020229,0.0868012,0.053544,0.0569765
 ,0.0002101,-0.0543361,0.0938228,-0.0973263,-0.0717663\Polar=47.3526816
 ,0.0002794,52.4163403,0.0000939,0.0012689,35.1948078\Quadrupole=0.1762
 501,0.5914584,-0.7677085,0.0000167,0.0000031,0.0000744\PG=C01 [X(C4H6)
 ]\NImag=0\\0.54771906,0.14949061,0.83764477,0.00001348,0.00005261,0.13
 674282,-0.07271589,-0.01174310,-0.00000091,0.54768547,0.01169164,-0.53
 664651,-0.00003685,-0.14945829,0.83767813,0.00000081,-0.00003710,-0.05
 670531,-0.00000771,0.00005090,0.13674297,-0.04891926,-0.04592511,-0.00
 000337,-0.19234346,-0.02090393,-0.00000191,0.45780374,-0.04697015,-0.0
 5302485,-0.00000486,0.00658650,-0.04864053,0.00000175,0.12229762,0.438
 24827,-0.00000400,-0.00000535,0.01285002,0.00000041,0.00000191,-0.0705
 6933,0.00000639,-0.00000922,0.57435361,-0.19234177,0.02091994,0.000000
 10,-0.04890869,0.04592462,0.00000244,-0.04415667,-0.00801045,0.0000000
 4,0.45777627,-0.00657033,-0.04864207,0.00000163,0.04696944,-0.05303517
 ,-0.00000417,0.00799937,-0.14301362,-0.00000334,-0.12229971,0.43827513
 ,-0.00000226,0.00000225,-0.07056932,0.00000299,-0.00000456,0.01284994,
 0.00000077,-0.00000341,-0.09062743,-0.00000904,-0.00001017,0.57435406,
 -0.20842866,-0.13879117,-0.00001083,0.00401786,0.00322923,0.00000026,-
 0.00256396,-0.00233880,-0.00000038,-0.00083211,-0.01468247,-0.00000083
 ,0.20785413,-0.13349979,-0.19285377,-0.00001153,-0.02213787,-0.0032977
 7,-0.00000055,-0.00123822,-0.00384408,-0.00000148,0.00394271,0.0055351
 5,0.00000043,0.15509163,0.19413000,-0.00000984,-0.00001088,-0.03808409
 ,-0.00000190,-0.00000095,0.00638100,-0.00000017,-0.00000136,0.01537684
 ,0.00000010,0.00000008,-0.00031698,0.00001189,0.00001276,0.02232251,0.
 00401996,-0.00323010,-0.00000029,-0.20839806,0.13879281,0.00000870,-0.
 00083087,0.01468320,0.00000088,-0.00256356,0.00233866,0.00000014,0.000
 51089,0.00039850,0.00000005,0.20781926,0.02213702,-0.00329988,-0.00000
 027,0.13350143,-0.19288417,-0.00000997,-0.00394200,0.00553394,0.000000
 40,0.00123807,-0.00384445,-0.00000149,-0.00039854,0.00023376,0.0000002
 7,-0.15509302,0.19416462,0.00000187,-0.00000095,0.00638097,0.00000778,
 -0.00000931,-0.03808411,-0.00000014,0.00000031,-0.00031698,-0.00000010
 ,-0.00000133,0.01537683,0.,0.00000027,-0.00394172,-0.00000960,0.000010
 91,0.02232257,-0.00417389,-0.00009318,-0.00019690,-0.01049459,-0.01473
 327,0.02494945,-0.08519344,-0.04143969,0.08539837,0.00069657,0.0016901
 0,-0.00492737,0.00001597,-0.00103992,-0.00244612,-0.00029501,0.0002384
 0,-0.00031897,0.09219097,-0.00012514,-0.00168892,0.00075751,-0.0019844
 8,0.00010219,-0.00270998,-0.03990489,-0.08911177,0.08676432,-0.0107556
 7,-0.00852987,0.02307748,-0.00108505,-0.00000339,-0.00173676,-0.000030
 17,0.00005182,0.00023466,0.04916616,0.09432517,0.00076260,-0.00089154,
 0.00128982,0.00057266,-0.00075219,0.00340246,0.08229075,0.08747888,-0.
 22226099,-0.00219003,-0.00189883,0.00174155,-0.00032326,-0.00020271,-0
 .00072114,0.00052769,0.00032851,-0.00014775,-0.09225132,-0.09512321,0.
 23780652,-0.00417402,-0.00009349,0.00019684,-0.01049480,-0.01473003,-0
 .02495193,-0.08519125,-0.04142663,-0.08540155,0.00069659,0.00168944,0.
 00492745,0.00001593,-0.00104033,0.00244602,-0.00029499,0.00023839,0.00
 031900,0.00612072,0.00546484,0.01024416,0.09218914,-0.00012517,-0.0016
 8898,-0.00075782,-0.00198452,0.00010180,0.00270944,-0.03989229,-0.0890
 8780,-0.08674594,-0.01075584,-0.00852768,-0.02307925,-0.00108517,-0.00
 000366,0.00173681,-0.00003010,0.00005188,-0.00023464,0.00546609,0.0061
 9295,0.01092004,0.04915254,0.09429969,-0.00076276,0.00089116,0.0012898
 4,-0.00057329,0.00075144,0.00340273,-0.08229378,-0.08746060,-0.2222861
 0,0.00218848,0.00189737,0.00173880,0.00032314,0.00020280,-0.00072084,-
 0.00052772,-0.00032849,-0.00014784,-0.01024312,-0.01091621,-0.02195283
 ,0.09225587,0.09510384,0.23783385,-0.01049234,0.01473443,-0.02494999,-
 0.00417384,0.00009346,0.00019689,0.00069746,-0.00169111,0.00492991,-0.
 08518139,0.04143747,-0.08538629,-0.00029502,-0.00023838,0.00031899,0.0
 0001617,0.00103991,0.00244594,0.00052779,-0.00148091,0.00016532,0.0006
 0493,0.00073534,-0.00020131,0.09217675,0.00198568,0.00010030,-0.002707
 14,0.00012541,-0.00168895,0.00075748,0.01075426,-0.00853095,0.02307717
 ,0.03990267,-0.08912016,0.08677396,0.00003020,0.00005185,0.00023463,0.
 00108507,-0.00000363,-0.00173703,0.00148061,-0.00222994,-0.00010340,-0
 .00073528,0.00089176,-0.00024439,-0.04916397,0.09433558,-0.00057301,-0
 .00075186,0.00340206,-0.00076279,-0.00089147,0.00128981,0.00218977,-0.
 00189908,0.00174163,-0.08227857,0.08748827,-0.22226431,-0.00052765,0.0
 0032857,-0.00014775,0.00032324,-0.00020272,-0.00072109,-0.00016533,-0.
 00010340,0.00020999,-0.00020139,0.00024446,0.00063238,0.09223815,-0.09
 513378,0.23781008,-0.01049319,0.01473119,0.02495186,-0.00417400,0.0000
 9375,-0.00019701,0.00069772,-0.00169049,-0.00493006,-0.08518525,0.0414
 2802,0.08539443,-0.00029503,-0.00023834,-0.00031902,0.00001621,0.00104
 033,-0.00244579,0.00060492,0.00073532,0.00020142,0.00052775,-0.0014808
 7,-0.00016551,0.00611949,-0.00546466,-0.01024242,0.09218137,0.00198563
 ,0.00009990,0.00270672,0.00012548,-0.00168901,-0.00075781,0.01075519,-
 0.00852860,-0.02307846,0.03989366,-0.08909727,-0.08675524,0.00003014,0
 .00005191,-0.00023460,0.00108514,-0.00000390,0.00173710,-0.00073531,0.
 00089176,0.00024444,0.00148056,-0.00222995,0.00010309,-0.00546625,0.00
 619416,0.01092101,-0.04915425,0.09431101,0.00057311,0.00075166,0.00340
 319,0.00076276,0.00089107,0.00128982,-0.00218831,0.00189759,0.00173873
 ,0.08228657,-0.08746952,-0.22228315,0.00052767,-0.00032855,-0.00014783
 ,-0.00032311,0.00020286,-0.00072089,0.00020129,-0.00024441,0.00063238,
 0.00016553,0.00010305,0.00021001,0.01024238,-0.01091751,-0.02195279,-0
 .09224789,0.09511377,0.23783053\\0.00001319,-0.00005652,0.00000276,0.0
 0001355,0.00005626,-0.00000280,-0.00000143,-0.00001462,0.00000378,-0.0
 0000168,0.00001518,-0.00000340,-0.00000386,0.00000083,-0.00000014,-0.0
 0000371,-0.00000102,0.00000009,-0.00000440,-0.00000484,-0.00000523,-0.
 00000359,-0.00000388,0.00000484,-0.00000440,0.00000474,0.00000508,-0.0
 0000367,0.00000387,-0.00000497\\\@
 The archive entry for this job was punched.


 AND ALL THIS SCIENCE I DON'T UNDERSTAND
 IT'S JUST MY JOB FIVE DAYS A WEEK

                           -- ELTON JOHN, "ROCKET MAN"
 Job cpu time:       0 days  0 hours  6 minutes 27.4 seconds.
 Elapsed time:       0 days  0 hours  0 minutes 25.4 seconds.
 File lengths (MBytes):  RWF=     26 Int=      0 D2E=      0 Chk=      3 Scr=      1
 Normal termination of Gaussian 16 at Tue Sep  6 22:57:22 2022.
