Job Start Time: Tue Sep  6 22:56:59 MDT 2022
SLURM Job ID: 71226
SLURM Job Name: P1_crest_conf_1
 Entering Gaussian System, Link 0=/opt/apps/Gaussian/G16C/g16/g16
 Initial command:
 /opt/apps/Gaussian/G16C/g16/l1.exe "/tmp/Gau-3075805.inp" -scrdir="/tmp/"
 Entering Link 1 = /opt/apps/Gaussian/G16C/g16/l1.exe PID=   3075806.
  
 Copyright (c) 1988-2019, Gaussian, Inc.  All Rights Reserved.
  
 This is part of the Gaussian(R) 16 program.  It is based on
 the Gaussian(R) 09 system (copyright 2009, Gaussian, Inc.),
 the Gaussian(R) 03 system (copyright 2003, Gaussian, Inc.),
 the Gaussian(R) 98 system (copyright 1998, Gaussian, Inc.),
 the Gaussian(R) 94 system (copyright 1995, Gaussian, Inc.),
 the Gaussian 92(TM) system (copyright 1992, Gaussian, Inc.),
 the Gaussian 90(TM) system (copyright 1990, Gaussian, Inc.),
 the Gaussian 88(TM) system (copyright 1988, Gaussian, Inc.),
 the Gaussian 86(TM) system (copyright 1986, Carnegie Mellon
 University), and the Gaussian 82(TM) system (copyright 1983,
 Carnegie Mellon University). Gaussian is a federally registered
 trademark of Gaussian, Inc.
  
 This software contains proprietary and confidential information,
 including trade secrets, belonging to Gaussian, Inc.
  
 This software is provided under written license and may be
 used, copied, transmitted, or stored only in accord with that
 written license.
  
 The following legend is applicable only to US Government
 contracts under FAR:
  
                    RESTRICTED RIGHTS LEGEND
  
 Use, reproduction and disclosure by the US Government is
 subject to restrictions as set forth in subparagraphs (a)
 and (c) of the Commercial Computer Software - Restricted
 Rights clause in FAR 52.227-19.
  
 Gaussian, Inc.
 340 Quinnipiac St., Bldg. 40, Wallingford CT 06492
  
  
 ---------------------------------------------------------------
 Warning -- This program may not be used in any manner that
 competes with the business of Gaussian, Inc. or will provide
 assistance to any competitor of Gaussian, Inc.  The licensee
 of this program is prohibited from giving any competitor of
 Gaussian, Inc. access to this program.  By using this program,
 the user acknowledges that Gaussian, Inc. is engaged in the
 business of creating and licensing software in the field of
 computational chemistry and represents and warrants to the
 licensee that it is not a competitor of Gaussian, Inc. and that
 it will not use this program in any manner prohibited above.
 ---------------------------------------------------------------
  

 Cite this work as:
 Gaussian 16, Revision C.01,
 M. J. Frisch, G. W. Trucks, H. B. Schlegel, G. E. Scuseria, 
 M. A. Robb, J. R. Cheeseman, G. Scalmani, V. Barone, 
 G. A. Petersson, H. Nakatsuji, X. Li, M. Caricato, A. V. Marenich, 
 J. Bloino, B. G. Janesko, R. Gomperts, B. Mennucci, H. P. Hratchian, 
 J. V. Ortiz, A. F. Izmaylov, J. L. Sonnenberg, D. Williams-Young, 
 F. Ding, F. Lipparini, F. Egidi, J. Goings, B. Peng, A. Petrone, 
 T. Henderson, D. Ranasinghe, V. G. Zakrzewski, J. Gao, N. Rega, 
 G. Zheng, W. Liang, M. Hada, M. Ehara, K. Toyota, R. Fukuda, 
 J. Hasegawa, M. Ishida, T. Nakajima, Y. Honda, O. Kitao, H. Nakai, 
 T. Vreven, K. Throssell, J. A. Montgomery, Jr., J. E. Peralta, 
 F. Ogliaro, M. J. Bearpark, J. J. Heyd, E. N. Brothers, K. N. Kudin, 
 V. N. Staroverov, T. A. Keith, R. Kobayashi, J. Normand, 
 K. Raghavachari, A. P. Rendell, J. C. Burant, S. S. Iyengar, 
 J. Tomasi, M. Cossi, J. M. Millam, M. Klene, C. Adamo, R. Cammi, 
 J. W. Ochterski, R. L. Martin, K. Morokuma, O. Farkas, 
 J. B. Foresman, and D. J. Fox, Gaussian, Inc., Wallingford CT, 2019.
 
 ******************************************
 Gaussian 16:  AS64L-G16RevC.01  3-Jul-2019
                 6-Sep-2022 
 ******************************************
 %nprocshared=16
 Will use up to   16 processors via shared memory.
 %mem=72GB
 -------------------------
 # B3LYP/def2tzvp opt freq
 -------------------------
 1/18=20,19=15,26=3,38=1/1,3;
 2/9=110,12=2,17=6,18=5,40=1/2;
 3/5=44,7=101,11=2,25=1,30=1,71=1,74=-5/1,2,3;
 4//1;
 5/5=2,38=5/2;
 6/7=2,8=2,9=2,10=2,28=1/1;
 7//1,2,3,16;
 1/18=20,19=15,26=3/3(2);
 2/9=110/2;
 99//99;
 2/9=110/2;
 3/5=44,7=101,11=2,25=1,30=1,71=1,74=-5/1,2,3;
 4/5=5,16=3,69=1/1;
 5/5=2,38=5/2;
 7//1,2,3,16;
 1/18=20,19=15,26=3/3(-5);
 2/9=110/2;
 6/7=2,8=2,9=2,10=2,19=2,28=1/1;
 99/9=1/99;
 ---------------
 P1_crest_conf_1
 ---------------
 Symbolic Z-matrix:
 Charge =  0 Multiplicity = 1
 C                     1.0526   -0.4051    0.7524 
 C                    -0.4456   -0.3241    1.1166 
 C                    -0.9784    1.0115    0.6637 
 C                    -0.9785    1.0113   -0.6641 
 C                    -0.4457   -0.3245   -1.1164 
 C                    -1.0256   -1.2143    0.0003 
 C                     1.0525   -0.4056   -0.7522 
 C                     1.7017    0.7161   -0.0003 
 H                     1.6594   -1.0718    1.3464 
 H                    -0.6667   -0.6046    2.1435 
 H                    -1.2444    1.8118    1.3303 
 H                    -1.2445    1.8113   -1.3309 
 H                    -0.667    -0.6054   -2.1433 
 H                    -2.1151   -1.2508    0.0003 
 H                    -0.6227   -2.2264    0.0004 
 H                     1.6591   -1.0728   -1.3457 
 H                     1.2591    1.6989   -0.0006 
 H                     2.783     0.7314   -0.0001 
 

 GradGradGradGradGradGradGradGradGradGradGradGradGradGradGradGradGradGrad
 Berny optimization.
 Initialization pass.
                           ----------------------------
                           !    Initial Parameters    !
                           ! (Angstroms and Degrees)  !
 --------------------------                            --------------------------
 ! Name  Definition              Value          Derivative Info.                !
 --------------------------------------------------------------------------------
 ! R1    R(1,2)                  1.544          estimate D2E/DX2                !
 ! R2    R(1,7)                  1.5046         estimate D2E/DX2                !
 ! R3    R(1,8)                  1.4983         estimate D2E/DX2                !
 ! R4    R(1,9)                  1.0796         estimate D2E/DX2                !
 ! R5    R(2,3)                  1.5076         estimate D2E/DX2                !
 ! R6    R(2,6)                  1.5411         estimate D2E/DX2                !
 ! R7    R(2,10)                 1.0872         estimate D2E/DX2                !
 ! R8    R(3,4)                  1.3278         estimate D2E/DX2                !
 ! R9    R(3,11)                 1.075          estimate D2E/DX2                !
 ! R10   R(4,5)                  1.5076         estimate D2E/DX2                !
 ! R11   R(4,12)                 1.0749         estimate D2E/DX2                !
 ! R12   R(5,6)                  1.5411         estimate D2E/DX2                !
 ! R13   R(5,7)                  1.544          estimate D2E/DX2                !
 ! R14   R(5,13)                 1.0874         estimate D2E/DX2                !
 ! R15   R(6,14)                 1.0901         estimate D2E/DX2                !
 ! R16   R(6,15)                 1.0893         estimate D2E/DX2                !
 ! R17   R(7,8)                  1.4983         estimate D2E/DX2                !
 ! R18   R(7,16)                 1.0795         estimate D2E/DX2                !
 ! R19   R(8,17)                 1.0779         estimate D2E/DX2                !
 ! R20   R(8,18)                 1.0814         estimate D2E/DX2                !
 ! A1    A(2,1,7)              103.6412         estimate D2E/DX2                !
 ! A2    A(2,1,8)              119.9749         estimate D2E/DX2                !
 ! A3    A(2,1,9)              116.6164         estimate D2E/DX2                !
 ! A4    A(7,1,9)              123.3696         estimate D2E/DX2                !
 ! A5    A(8,1,9)              119.6709         estimate D2E/DX2                !
 ! A6    A(1,2,3)              108.5754         estimate D2E/DX2                !
 ! A7    A(1,2,6)               99.4409         estimate D2E/DX2                !
 ! A8    A(1,2,10)             113.991          estimate D2E/DX2                !
 ! A9    A(3,2,6)               99.2724         estimate D2E/DX2                !
 ! A10   A(3,2,10)             116.1315         estimate D2E/DX2                !
 ! A11   A(6,2,10)             117.2963         estimate D2E/DX2                !
 ! A12   A(2,3,4)              107.476          estimate D2E/DX2                !
 ! A13   A(2,3,11)             124.1048         estimate D2E/DX2                !
 ! A14   A(4,3,11)             128.3304         estimate D2E/DX2                !
 ! A15   A(3,4,5)              107.465          estimate D2E/DX2                !
 ! A16   A(3,4,12)             128.3345         estimate D2E/DX2                !
 ! A17   A(5,4,12)             124.1114         estimate D2E/DX2                !
 ! A18   A(4,5,6)               99.2769         estimate D2E/DX2                !
 ! A19   A(4,5,7)              108.5849         estimate D2E/DX2                !
 ! A20   A(4,5,13)             116.1227         estimate D2E/DX2                !
 ! A21   A(6,5,7)               99.4322         estimate D2E/DX2                !
 ! A22   A(6,5,13)             117.2948         estimate D2E/DX2                !
 ! A23   A(7,5,13)             113.9965         estimate D2E/DX2                !
 ! A24   A(2,6,5)               92.851          estimate D2E/DX2                !
 ! A25   A(2,6,14)             113.2962         estimate D2E/DX2                !
 ! A26   A(2,6,15)             113.4168         estimate D2E/DX2                !
 ! A27   A(5,6,14)             113.2913         estimate D2E/DX2                !
 ! A28   A(5,6,15)             113.4112         estimate D2E/DX2                !
 ! A29   A(14,6,15)            109.7879         estimate D2E/DX2                !
 ! A30   A(1,7,5)              103.6467         estimate D2E/DX2                !
 ! A31   A(1,7,16)             123.3636         estimate D2E/DX2                !
 ! A32   A(5,7,8)              119.966          estimate D2E/DX2                !
 ! A33   A(5,7,16)             116.618          estimate D2E/DX2                !
 ! A34   A(8,7,16)             119.6775         estimate D2E/DX2                !
 ! A35   A(1,8,17)             120.3017         estimate D2E/DX2                !
 ! A36   A(1,8,18)             116.3381         estimate D2E/DX2                !
 ! A37   A(7,8,17)             120.3012         estimate D2E/DX2                !
 ! A38   A(7,8,18)             116.3543         estimate D2E/DX2                !
 ! A39   A(17,8,18)            113.4336         estimate D2E/DX2                !
 ! D1    D(7,1,2,3)            -65.9593         estimate D2E/DX2                !
 ! D2    D(7,1,2,6)             37.2317         estimate D2E/DX2                !
 ! D3    D(7,1,2,10)           162.883          estimate D2E/DX2                !
 ! D4    D(8,1,2,3)             -3.1183         estimate D2E/DX2                !
 ! D5    D(8,1,2,6)            100.0727         estimate D2E/DX2                !
 ! D6    D(8,1,2,10)          -134.2759         estimate D2E/DX2                !
 ! D7    D(9,1,2,3)            155.0407         estimate D2E/DX2                !
 ! D8    D(9,1,2,6)           -101.7683         estimate D2E/DX2                !
 ! D9    D(9,1,2,10)            23.883          estimate D2E/DX2                !
 ! D10   D(2,1,7,5)              0.0131         estimate D2E/DX2                !
 ! D11   D(2,1,7,16)          -135.3766         estimate D2E/DX2                !
 ! D12   D(9,1,7,5)            135.3999         estimate D2E/DX2                !
 ! D13   D(9,1,7,16)             0.0102         estimate D2E/DX2                !
 ! D14   D(2,1,8,17)            20.9808         estimate D2E/DX2                !
 ! D15   D(2,1,8,18)           164.4252         estimate D2E/DX2                !
 ! D16   D(9,1,8,17)          -136.512          estimate D2E/DX2                !
 ! D17   D(9,1,8,18)             6.9323         estimate D2E/DX2                !
 ! D18   D(1,2,3,4)             68.4923         estimate D2E/DX2                !
 ! D19   D(1,2,3,11)          -108.3294         estimate D2E/DX2                !
 ! D20   D(6,2,3,4)            -34.8166         estimate D2E/DX2                !
 ! D21   D(6,2,3,11)           148.3616         estimate D2E/DX2                !
 ! D22   D(10,2,3,4)          -161.5189         estimate D2E/DX2                !
 ! D23   D(10,2,3,11)           21.6593         estimate D2E/DX2                !
 ! D24   D(1,2,6,5)            -58.5585         estimate D2E/DX2                !
 ! D25   D(1,2,6,14)          -175.4614         estimate D2E/DX2                !
 ! D26   D(1,2,6,15)            58.5124         estimate D2E/DX2                !
 ! D27   D(3,2,6,5)             52.1951         estimate D2E/DX2                !
 ! D28   D(3,2,6,14)           -64.7079         estimate D2E/DX2                !
 ! D29   D(3,2,6,15)           169.266          estimate D2E/DX2                !
 ! D30   D(10,2,6,5)           178.0995         estimate D2E/DX2                !
 ! D31   D(10,2,6,14)           61.1965         estimate D2E/DX2                !
 ! D32   D(10,2,6,15)          -64.8296         estimate D2E/DX2                !
 ! D33   D(2,3,4,5)             -0.0016         estimate D2E/DX2                !
 ! D34   D(2,3,4,12)          -176.6407         estimate D2E/DX2                !
 ! D35   D(11,3,4,5)           176.6435         estimate D2E/DX2                !
 ! D36   D(11,3,4,12)            0.0043         estimate D2E/DX2                !
 ! D37   D(3,4,5,6)             34.8192         estimate D2E/DX2                !
 ! D38   D(3,4,5,7)            -68.4844         estimate D2E/DX2                !
 ! D39   D(3,4,5,13)           161.5179         estimate D2E/DX2                !
 ! D40   D(12,4,5,6)          -148.3647         estimate D2E/DX2                !
 ! D41   D(12,4,5,7)           108.3317         estimate D2E/DX2                !
 ! D42   D(12,4,5,13)          -21.666          estimate D2E/DX2                !
 ! D43   D(4,5,6,2)            -52.1996         estimate D2E/DX2                !
 ! D44   D(4,5,6,14)            64.7075         estimate D2E/DX2                !
 ! D45   D(4,5,6,15)          -169.2753         estimate D2E/DX2                !
 ! D46   D(7,5,6,2)             58.5629         estimate D2E/DX2                !
 ! D47   D(7,5,6,14)           175.47           estimate D2E/DX2                !
 ! D48   D(7,5,6,15)           -58.5128         estimate D2E/DX2                !
 ! D49   D(13,5,6,2)          -178.0955         estimate D2E/DX2                !
 ! D50   D(13,5,6,14)          -61.1883         estimate D2E/DX2                !
 ! D51   D(13,5,6,15)           64.8289         estimate D2E/DX2                !
 ! D52   D(4,5,7,1)             65.9429         estimate D2E/DX2                !
 ! D53   D(4,5,7,8)              3.1            estimate D2E/DX2                !
 ! D54   D(4,5,7,16)          -155.0587         estimate D2E/DX2                !
 ! D55   D(6,5,7,1)            -37.2521         estimate D2E/DX2                !
 ! D56   D(6,5,7,8)           -100.095          estimate D2E/DX2                !
 ! D57   D(6,5,7,16)           101.7464         estimate D2E/DX2                !
 ! D58   D(13,5,7,1)          -162.8986         estimate D2E/DX2                !
 ! D59   D(13,5,7,8)           134.2585         estimate D2E/DX2                !
 ! D60   D(13,5,7,16)          -23.9001         estimate D2E/DX2                !
 ! D61   D(5,7,8,17)           -20.9699         estimate D2E/DX2                !
 ! D62   D(5,7,8,18)          -164.44           estimate D2E/DX2                !
 ! D63   D(16,7,8,17)          136.5214         estimate D2E/DX2                !
 ! D64   D(16,7,8,18)           -6.9487         estimate D2E/DX2                !
 --------------------------------------------------------------------------------
 Trust Radius=3.00D-01 FncErr=1.00D-07 GrdErr=1.00D-06 EigMax=2.50D+02 EigMin=1.00D-04
 Number of steps in this run=    108 maximum allowed number of steps=    108.
 GradGradGradGradGradGradGradGradGradGradGradGradGradGradGradGradGradGrad

                          Input orientation:                          
 ---------------------------------------------------------------------
 Center     Atomic      Atomic             Coordinates (Angstroms)
 Number     Number       Type             X           Y           Z
 ---------------------------------------------------------------------
      1          6           0        1.052600   -0.405100    0.752400
      2          6           0       -0.445600   -0.324100    1.116600
      3          6           0       -0.978400    1.011500    0.663700
      4          6           0       -0.978500    1.011300   -0.664100
      5          6           0       -0.445700   -0.324500   -1.116400
      6          6           0       -1.025600   -1.214300    0.000300
      7          6           0        1.052500   -0.405600   -0.752200
      8          6           0        1.701700    0.716100   -0.000300
      9          1           0        1.659400   -1.071800    1.346400
     10          1           0       -0.666700   -0.604600    2.143500
     11          1           0       -1.244400    1.811800    1.330300
     12          1           0       -1.244500    1.811300   -1.330900
     13          1           0       -0.667000   -0.605400   -2.143300
     14          1           0       -2.115100   -1.250800    0.000300
     15          1           0       -0.622700   -2.226400    0.000400
     16          1           0        1.659100   -1.072800   -1.345700
     17          1           0        1.259100    1.698900   -0.000600
     18          1           0        2.783000    0.731400   -0.000100
 ---------------------------------------------------------------------
                    Distance matrix (angstroms):
                    1          2          3          4          5
     1  C    0.000000
     2  C    1.543958   0.000000
     3  C    2.477818   1.507588   0.000000
     4  C    2.852723   2.288704   1.327800   0.000000
     5  C    2.396625   2.233000   2.288541   1.507585   0.000000
     6  C    2.353588   1.541098   2.323040   2.323132   1.541119
     7  C    1.504600   2.396531   2.852630   2.477969   1.543963
     8  C    1.498325   2.634460   2.776886   2.776913   2.634360
     9  H    1.079598   2.245638   3.429899   3.916623   3.324949
    10  H    2.220575   1.087239   2.213311   3.254377   3.279367
    11  H    3.244198   2.290375   1.074984   2.165441   3.344853
    12  H    3.811724   3.344911   2.165391   1.074885   2.290357
    13  H    3.373755   3.279496   3.254318   2.213320   1.087383
    14  H    3.363805   2.211816   2.617286   2.617324   2.211775
    15  H    2.586362   2.212693   3.324227   3.324283   2.212644
    16  H    2.283788   3.324641   3.916427   3.430012   2.245599
    17  H    2.244207   2.871701   2.433150   2.433080   2.871498
    18  H    2.202765   3.575606   3.829780   3.829898   3.575689
                    6          7          8          9         10
     6  C    0.000000
     7  C    2.353455   0.000000
     8  C    3.341349   1.498341   0.000000
     9  H    3.006911   2.283916   2.238744   0.000000
    10  H    2.256956   3.373474   3.456797   2.502875   0.000000
    11  H    3.312711   3.811747   3.413292   4.092366   2.614196
    12  H    3.312743   3.244341   3.413218   4.890075   4.271052
    13  H    2.257072   2.220757   3.456812   4.219914   4.286800
    14  H    1.090111   3.363675   4.293793   4.011343   2.666223
    15  H    1.089346   2.586120   3.749819   2.890121   2.687945
    16  H    3.006552   1.079519   2.238767   2.692100   4.219369
    17  H    3.702241   2.244216   1.077864   3.106675   3.689442
    18  H    4.276819   2.202965   1.081408   2.515367   4.275552
                   11         12         13         14         15
    11  H    0.000000
    12  H    2.661200   0.000000
    13  H    4.271082   2.614180   0.000000
    14  H    3.450585   3.450579   2.666187   0.000000
    15  H    4.296767   4.296745   2.687946   1.782990   0.000000
    16  H    4.890011   4.092572   2.503072   4.010983   2.889531
    17  H    2.837526   2.837313   3.689285   4.481736   4.353062
    18  H    4.376891   4.376982   4.275844   5.283985   4.510806
                   16         17         18
    16  H    0.000000
    17  H    3.106705   0.000000
    18  H    2.515736   1.805084   0.000000
 Stoichiometry    C8H10
 Framework group  C1[X(C8H10)]
 Deg. of freedom    48
 Full point group                 C1      NOp   1
 Largest Abelian subgroup         C1      NOp   1
 Largest concise Abelian subgroup C1      NOp   1
                         Standard orientation:                         
 ---------------------------------------------------------------------
 Center     Atomic      Atomic             Coordinates (Angstroms)
 Number     Number       Type             X           Y           Z
 ---------------------------------------------------------------------
      1          6           0        1.038780   -0.416618    0.752180
      2          6           0       -0.457807   -0.310160    1.116462
      3          6           0       -0.967683    1.034571    0.664194
      4          6           0       -0.967816    1.034985   -0.663606
      5          6           0       -0.457963   -0.309528   -1.116538
      6          6           0       -1.052980   -1.189789   -0.000230
      7          6           0        1.038638   -0.416423   -0.752420
      8          6           0        1.706955    0.693657   -0.000023
      9          1           0        1.634095   -1.093879    1.345854
     10          1           0       -0.683651   -0.587309    2.143239
     11          1           0       -1.219934    1.838998    1.331170
     12          1           0       -1.220102    1.839727   -1.330030
     13          1           0       -0.684061   -0.586127   -2.143560
     14          1           0       -2.142945   -1.207640   -0.000214
     15          1           0       -0.667459   -2.208636   -0.000609
     16          1           0        1.633718   -1.093632   -1.346246
     17          1           0        1.281238    1.683887    0.000143
     18          1           0        2.788358    0.690450    0.000151
 ---------------------------------------------------------------------
 Rotational constants (GHZ):           3.4825804           2.5767078           2.5252545
 Standard basis: def2TZVP (5D, 7F)
 There are   348 symmetry adapted cartesian basis functions of A   symmetry.
 There are   308 symmetry adapted basis functions of A   symmetry.
   308 basis functions,   488 primitive gaussians,   348 cartesian basis functions
    29 alpha electrons       29 beta electrons
       nuclear repulsion energy       378.6516626039 Hartrees.
 NAtoms=   18 NActive=   18 NUniq=   18 SFac= 1.00D+00 NAtFMM=   60 NAOKFM=F Big=F
 Integral buffers will be    131072 words long.
 Raffenetti 2 integral format.
 Two-electron integral symmetry is turned on.
 One-electron integrals computed using PRISM.
   1 Symmetry operations used in ECPInt.
 ECPInt:  NShTT=    8256 NPrTT=   24516 LenC2=    8213 LenP2D=   20399.
 LDataN:  DoStor=T MaxTD1= 6 Len=  172
 NBasis=   308 RedAO= T EigKep=  2.72D-05  NBF=   308
 NBsUse=   308 1.00D-06 EigRej= -1.00D+00 NBFU=   308
 ExpMin= 9.52D-02 ExpMax= 1.36D+04 ExpMxC= 4.63D+02 IAcc=3 IRadAn=         5 AccDes= 0.00D+00
 Harris functional with IExCor=  402 and IRadAn=       5 diagonalized for initial guess.
 HarFok:  IExCor=  402 AccDes= 0.00D+00 IRadAn=         5 IDoV= 1 UseB2=F ITyADJ=14
 ICtDFT=  3500011 ScaDFX=  1.000000  1.000000  1.000000  1.000000
 FoFCou: FMM=F IPFlag=           0 FMFlag=      100000 FMFlg1=           0
         NFxFlg=           0 DoJE=T BraDBF=F KetDBF=T FulRan=T
         wScrn=  0.000000 ICntrl=       500 IOpCl=  0 I1Cent=   200000004 NGrid=           0
         NMat0=    1 NMatS0=      1 NMatT0=    0 NMatD0=    1 NMtDS0=    0 NMtDT0=    0
 Petite list used in FoFCou.
 Requested convergence on RMS density matrix=1.00D-08 within 128 cycles.
 Requested convergence on MAX density matrix=1.00D-06.
 Requested convergence on             energy=1.00D-06.
 No special actions if energy rises.
 Integral accuracy reduced to 1.0D-05 until final iterations.
 Initial convergence to 1.0D-05 achieved.  Increase integral accuracy.
 SCF Done:  E(RB3LYP) =  -310.894691019     A.U. after   13 cycles
            NFock= 13  Conv=0.96D-08     -V/T= 2.0047

 **********************************************************************

            Population analysis using the SCF Density.

 **********************************************************************

 Orbital symmetries:
       Occupied  (A) (A) (A) (A) (A) (A) (A) (A) (A) (A) (A) (A)
                 (A) (A) (A) (A) (A) (A) (A) (A) (A) (A) (A) (A)
                 (A) (A) (A) (A) (A)
       Virtual   (A) (A) (A) (A) (A) (A) (A) (A) (A) (A) (A) (A)
                 (A) (A) (A) (A) (A) (A) (A) (A) (A) (A) (A) (A)
                 (A) (A) (A) (A) (A) (A) (A) (A) (A) (A) (A) (A)
                 (A) (A) (A) (A) (A) (A) (A) (A) (A) (A) (A) (A)
                 (A) (A) (A) (A) (A) (A) (A) (A) (A) (A) (A) (A)
                 (A) (A) (A) (A) (A) (A) (A) (A) (A) (A) (A) (A)
                 (A) (A) (A) (A) (A) (A) (A) (A) (A) (A) (A) (A)
                 (A) (A) (A) (A) (A) (A) (A) (A) (A) (A) (A) (A)
                 (A) (A) (A) (A) (A) (A) (A) (A) (A) (A) (A) (A)
                 (A) (A) (A) (A) (A) (A) (A) (A) (A) (A) (A) (A)
                 (A) (A) (A) (A) (A) (A) (A) (A) (A) (A) (A) (A)
                 (A) (A) (A) (A) (A) (A) (A) (A) (A) (A) (A) (A)
                 (A) (A) (A) (A) (A) (A) (A) (A) (A) (A) (A) (A)
                 (A) (A) (A) (A) (A) (A) (A) (A) (A) (A) (A) (A)
                 (A) (A) (A) (A) (A) (A) (A) (A) (A) (A) (A) (A)
                 (A) (A) (A) (A) (A) (A) (A) (A) (A) (A) (A) (A)
                 (A) (A) (A) (A) (A) (A) (A) (A) (A) (A) (A) (A)
                 (A) (A) (A) (A) (A) (A) (A) (A) (A) (A) (A) (A)
                 (A) (A) (A) (A) (A) (A) (A) (A) (A) (A) (A) (A)
                 (A) (A) (A) (A) (A) (A) (A) (A) (A) (A) (A) (A)
                 (A) (A) (A) (A) (A) (A) (A) (A) (A) (A) (A) (A)
                 (A) (A) (A) (A) (A) (A) (A) (A) (A) (A) (A) (A)
                 (A) (A) (A) (A) (A) (A) (A) (A) (A) (A) (A) (A)
                 (A) (A) (A)
 The electronic state is 1-A.
 Alpha  occ. eigenvalues --  -10.17630 -10.17628 -10.17088 -10.17061 -10.16326
 Alpha  occ. eigenvalues --  -10.16310 -10.16186 -10.16093  -0.91115  -0.81149
 Alpha  occ. eigenvalues --   -0.71656  -0.71498  -0.60604  -0.57265  -0.55691
 Alpha  occ. eigenvalues --   -0.52968  -0.50758  -0.48508  -0.46535  -0.41178
 Alpha  occ. eigenvalues --   -0.38314  -0.38275  -0.36051  -0.33971  -0.33333
 Alpha  occ. eigenvalues --   -0.33167  -0.28613  -0.26855  -0.24508
 Alpha virt. eigenvalues --    0.00389   0.03845   0.06618   0.07345   0.07411
 Alpha virt. eigenvalues --    0.09564   0.09879   0.10080   0.11059   0.11581
 Alpha virt. eigenvalues --    0.12011   0.13278   0.15165   0.15992   0.16675
 Alpha virt. eigenvalues --    0.17229   0.17946   0.19050   0.21539   0.22224
 Alpha virt. eigenvalues --    0.23465   0.23658   0.25128   0.25228   0.29229
 Alpha virt. eigenvalues --    0.30896   0.32069   0.32826   0.33750   0.35707
 Alpha virt. eigenvalues --    0.36962   0.37034   0.38423   0.39010   0.39047
 Alpha virt. eigenvalues --    0.39203   0.40880   0.42288   0.42321   0.42664
 Alpha virt. eigenvalues --    0.43503   0.44648   0.45030   0.45577   0.45693
 Alpha virt. eigenvalues --    0.46881   0.47599   0.47882   0.48892   0.50561
 Alpha virt. eigenvalues --    0.50749   0.52299   0.52713   0.54252   0.56427
 Alpha virt. eigenvalues --    0.58303   0.61906   0.64512   0.66322   0.67343
 Alpha virt. eigenvalues --    0.74689   0.75844   0.76416   0.78622   0.83203
 Alpha virt. eigenvalues --    0.83558   0.85346   0.88476   0.91048   0.91268
 Alpha virt. eigenvalues --    0.93263   0.93500   0.96253   0.98082   0.98729
 Alpha virt. eigenvalues --    1.00930   1.03346   1.05835   1.06355   1.06687
 Alpha virt. eigenvalues --    1.07755   1.11424   1.11823   1.12556   1.15839
 Alpha virt. eigenvalues --    1.16500   1.16858   1.18244   1.20656   1.20990
 Alpha virt. eigenvalues --    1.22050   1.24608   1.25033   1.27226   1.27832
 Alpha virt. eigenvalues --    1.27998   1.28266   1.34708   1.37377   1.37521
 Alpha virt. eigenvalues --    1.40528   1.44426   1.47037   1.49843   1.50157
 Alpha virt. eigenvalues --    1.52324   1.56072   1.56307   1.59427   1.60214
 Alpha virt. eigenvalues --    1.60739   1.63599   1.65278   1.68751   1.71556
 Alpha virt. eigenvalues --    1.74774   1.75755   1.76707   1.80507   1.81672
 Alpha virt. eigenvalues --    1.82261   1.88071   1.89695   1.92352   1.96890
 Alpha virt. eigenvalues --    1.97405   2.00016   2.00788   2.01743   2.04147
 Alpha virt. eigenvalues --    2.05349   2.07502   2.11353   2.11448   2.15118
 Alpha virt. eigenvalues --    2.16776   2.17815   2.22343   2.23748   2.26107
 Alpha virt. eigenvalues --    2.28669   2.35317   2.35329   2.35924   2.38423
 Alpha virt. eigenvalues --    2.39425   2.41239   2.42562   2.46071   2.47026
 Alpha virt. eigenvalues --    2.48048   2.50389   2.52283   2.52508   2.54626
 Alpha virt. eigenvalues --    2.56592   2.58312   2.60262   2.61466   2.64658
 Alpha virt. eigenvalues --    2.65707   2.66636   2.68135   2.68949   2.72925
 Alpha virt. eigenvalues --    2.74618   2.76387   2.76723   2.79426   2.81402
 Alpha virt. eigenvalues --    2.82666   2.83904   2.85035   2.87308   2.88047
 Alpha virt. eigenvalues --    2.89569   2.92405   2.93790   2.94309   2.97256
 Alpha virt. eigenvalues --    2.98369   2.99498   3.00554   3.02219   3.03876
 Alpha virt. eigenvalues --    3.04398   3.04667   3.10700   3.12404   3.13062
 Alpha virt. eigenvalues --    3.13690   3.16376   3.20257   3.20507   3.22262
 Alpha virt. eigenvalues --    3.24680   3.25424   3.27534   3.28971   3.30735
 Alpha virt. eigenvalues --    3.30989   3.31823   3.38142   3.41228   3.42055
 Alpha virt. eigenvalues --    3.43552   3.47253   3.49938   3.50948   3.51456
 Alpha virt. eigenvalues --    3.53287   3.56378   3.57056   3.60277   3.62918
 Alpha virt. eigenvalues --    3.65510   3.65902   3.66748   3.72227   3.74915
 Alpha virt. eigenvalues --    3.76964   3.81912   3.83063   3.83625   3.87559
 Alpha virt. eigenvalues --    3.88457   3.90217   3.91374   3.95058   4.01326
 Alpha virt. eigenvalues --    4.02949   4.03905   4.04861   4.07692   4.09864
 Alpha virt. eigenvalues --    4.09880   4.13435   4.14644   4.18629   4.19280
 Alpha virt. eigenvalues --    4.26328   4.28209   4.30208   4.31055   4.33720
 Alpha virt. eigenvalues --    4.35999   4.40833   4.43714   4.44409   4.45685
 Alpha virt. eigenvalues --    4.47277   4.47756   4.50575   4.56468   4.57233
 Alpha virt. eigenvalues --    4.59657   4.65068   4.65338   4.76304   4.80445
 Alpha virt. eigenvalues --    4.82417   4.89515   4.93652   4.95593   4.97948
 Alpha virt. eigenvalues --    4.99741   5.03644   5.05871   5.10184   5.14884
 Alpha virt. eigenvalues --    5.22281  22.30024  22.44200  22.49185  22.54945
 Alpha virt. eigenvalues --   22.57970  22.72257  22.81553  22.88455
          Condensed to atoms (all electrons):
               1          2          3          4          5          6
     1  C    5.149491   0.301457   0.035569  -0.025882  -0.076859  -0.083879
     2  C    0.301457   4.906466   0.285475  -0.068567  -0.034842   0.323040
     3  C    0.035569   0.285475   5.129036   0.610298  -0.068624  -0.056302
     4  C   -0.025882  -0.068567   0.610298   5.129033   0.285455  -0.056240
     5  C   -0.076859  -0.034842  -0.068624   0.285455   4.906480   0.322965
     6  C   -0.083879   0.323040  -0.056302  -0.056240   0.322965   5.081036
     7  C    0.288194  -0.076962  -0.025815   0.035614   0.301487  -0.083884
     8  C    0.231320   0.014841  -0.078809  -0.078823   0.014853   0.027845
     9  H    0.429120  -0.046323   0.002150   0.005014  -0.001640   0.006096
    10  H   -0.049601   0.422860  -0.046439   0.010086   0.007670  -0.043694
    11  H    0.004576  -0.058162   0.431132  -0.044821   0.008763   0.010610
    12  H   -0.001629   0.008760  -0.044821   0.431172  -0.058154   0.010606
    13  H    0.013016   0.007673   0.010090  -0.046453   0.422817  -0.043691
    14  H    0.010489  -0.021742  -0.003357  -0.003355  -0.021758   0.378799
    15  H   -0.000463  -0.030734   0.009002   0.008995  -0.030728   0.385509
    16  H   -0.032750  -0.001643   0.005014   0.002151  -0.046339   0.006106
    17  H   -0.015035  -0.016871   0.009741   0.009735  -0.016861  -0.001187
    18  H   -0.032306   0.007861  -0.000836  -0.000836   0.007862  -0.003113
               7          8          9         10         11         12
     1  C    0.288194   0.231320   0.429120  -0.049601   0.004576  -0.001629
     2  C   -0.076962   0.014841  -0.046323   0.422860  -0.058162   0.008760
     3  C   -0.025815  -0.078809   0.002150  -0.046439   0.431132  -0.044821
     4  C    0.035614  -0.078823   0.005014   0.010086  -0.044821   0.431172
     5  C    0.301487   0.014853  -0.001640   0.007670   0.008763  -0.058154
     6  C   -0.083884   0.027845   0.006096  -0.043694   0.010610   0.010606
     7  C    5.149396   0.231283  -0.032719   0.013017  -0.001627   0.004574
     8  C    0.231283   5.100777  -0.041754   0.000331   0.000097   0.000093
     9  H   -0.032719  -0.041754   0.610196  -0.004355  -0.000414   0.000163
    10  H    0.013017   0.000331  -0.004355   0.611701  -0.003158  -0.000308
    11  H   -0.001627   0.000097  -0.000414  -0.003158   0.560922  -0.006162
    12  H    0.004574   0.000093   0.000163  -0.000308  -0.006162   0.560857
    13  H   -0.049589   0.000329  -0.000124  -0.000433  -0.000309  -0.003158
    14  H    0.010494  -0.001611  -0.000568  -0.000655  -0.000315  -0.000315
    15  H   -0.000468   0.002171   0.000031  -0.001842  -0.000353  -0.000353
    16  H    0.429163  -0.041738  -0.008109  -0.000124   0.000163  -0.000414
    17  H   -0.015034   0.388920   0.003309   0.000440  -0.000478  -0.000477
    18  H   -0.032289   0.418357  -0.009412  -0.000030  -0.000051  -0.000051
              13         14         15         16         17         18
     1  C    0.013016   0.010489  -0.000463  -0.032750  -0.015035  -0.032306
     2  C    0.007673  -0.021742  -0.030734  -0.001643  -0.016871   0.007861
     3  C    0.010090  -0.003357   0.009002   0.005014   0.009741  -0.000836
     4  C   -0.046453  -0.003355   0.008995   0.002151   0.009735  -0.000836
     5  C    0.422817  -0.021758  -0.030728  -0.046339  -0.016861   0.007862
     6  C   -0.043691   0.378799   0.385509   0.006106  -0.001187  -0.003113
     7  C   -0.049589   0.010494  -0.000468   0.429163  -0.015034  -0.032289
     8  C    0.000329  -0.001611   0.002171  -0.041738   0.388920   0.418357
     9  H   -0.000124  -0.000568   0.000031  -0.008109   0.003309  -0.009412
    10  H   -0.000433  -0.000655  -0.001842  -0.000124   0.000440  -0.000030
    11  H   -0.000309  -0.000315  -0.000353   0.000163  -0.000478  -0.000051
    12  H   -0.003158  -0.000315  -0.000353  -0.000414  -0.000477  -0.000051
    13  H    0.611757  -0.000657  -0.001841  -0.004355   0.000441  -0.000030
    14  H   -0.000657   0.604262  -0.030650  -0.000569  -0.000024   0.000085
    15  H   -0.001841  -0.030650   0.613306   0.000028   0.000037  -0.000055
    16  H   -0.004355  -0.000569   0.000028   0.610182   0.003306  -0.009409
    17  H    0.000441  -0.000024   0.000037   0.003306   0.572528  -0.028017
    18  H   -0.000030   0.000085  -0.000055  -0.009409  -0.028017   0.585609
 Mulliken charges:
               1
     1  C   -0.144828
     2  C    0.077412
     3  C   -0.202505
     4  C   -0.202575
     5  C    0.077454
     6  C   -0.180620
     7  C   -0.144835
     8  C   -0.188482
     9  H    0.089340
    10  H    0.084536
    11  H    0.099589
    12  H    0.099618
    13  H    0.084517
    14  H    0.081446
    15  H    0.078406
    16  H    0.089337
    17  H    0.105528
    18  H    0.096663
 Sum of Mulliken charges =  -0.00000
 Mulliken charges with hydrogens summed into heavy atoms:
               1
     1  C   -0.055488
     2  C    0.161947
     3  C   -0.102916
     4  C   -0.102958
     5  C    0.161971
     6  C   -0.020768
     7  C   -0.055498
     8  C    0.013710
 Electronic spatial extent (au):  <R**2>=            697.2136
 Charge=             -0.0000 electrons
 Dipole moment (field-independent basis, Debye):
    X=              0.1582    Y=             -0.2564    Z=              0.0002  Tot=              0.3013
 Quadrupole moment (field-independent basis, Debye-Ang):
   XX=            -49.8933   YY=            -48.1661   ZZ=            -47.6959
   XY=             -1.0401   XZ=              0.0011   YZ=             -0.0005
 Traceless Quadrupole moment (field-independent basis, Debye-Ang):
   XX=             -1.3082   YY=              0.4190   ZZ=              0.8892
   XY=             -1.0401   XZ=              0.0011   YZ=             -0.0005
 Octapole moment (field-independent basis, Debye-Ang**2):
  XXX=              7.5456  YYY=              2.1346  ZZZ=              0.0023  XYY=             -0.6867
  XXY=             -2.1831  XXZ=              0.0009  XZZ=             -2.9441  YZZ=             -0.7740
  YYZ=             -0.0005  XYZ=              0.0013
 Hexadecapole moment (field-independent basis, Debye-Ang**3):
 XXXX=           -427.3203 YYYY=           -282.6476 ZZZZ=           -258.6541 XXXY=              1.4353
 XXXZ=              0.0088 YYYX=             -6.5340 YYYZ=             -0.0043 ZZZX=             -0.0000
 ZZZY=             -0.0008 XXYY=           -119.3571 XXZZ=           -117.3580 YYZZ=            -86.9500
 XXYZ=             -0.0004 YYXZ=              0.0022 ZZXY=             -6.7390
 N-N= 3.786516626039D+02 E-N=-1.477883894368D+03  KE= 3.094462557581D+02
   1 Symmetry operations used in ECPInt.
 ECPInt:  NShTT=    8256 NPrTT=   24516 LenC2=    8213 LenP2D=   20399.
 LDataN:  DoStor=T MaxTD1= 7 Len=  274
 Calling FoFJK, ICntrl=      2127 FMM=F ISym2X=0 I1Cent= 0 IOpClX= 0 NMat=1 NMatS=1 NMatT=0.
 ***** Axes restored to original set *****
 -------------------------------------------------------------------
 Center     Atomic                   Forces (Hartrees/Bohr)
 Number     Number              X              Y              Z
 -------------------------------------------------------------------
      1        6           0.006435615    0.000357359    0.003422112
      2        6          -0.004180253   -0.001066762    0.005040051
      3        6          -0.006828826    0.001352084    0.004845813
      4        6          -0.006774872    0.001259850   -0.004761128
      5        6          -0.004198176   -0.001125065   -0.005133940
      6        6          -0.006564017   -0.006795675   -0.000014689
      7        6           0.006457528    0.000418580   -0.003408730
      8        6           0.009846021    0.001096391    0.000011821
      9        1           0.002289902   -0.001413761   -0.000953045
     10        1           0.000138201    0.000054445    0.000655538
     11        1          -0.000137606    0.004950569    0.001244015
     12        1          -0.000155737    0.004996234   -0.001286777
     13        1           0.000171074    0.000065019   -0.000569400
     14        1          -0.001309412   -0.000565182    0.000006340
     15        1           0.001555095   -0.001864336    0.000005276
     16        1           0.002320475   -0.001435851    0.000914092
     17        1          -0.000923809    0.000872886   -0.000003015
     18        1           0.001858799   -0.001156784   -0.000014334
 -------------------------------------------------------------------
 Cartesian Forces:  Max     0.009846021 RMS     0.003360500

 GradGradGradGradGradGradGradGradGradGradGradGradGradGradGradGradGradGrad
 Berny optimization.
 FormGI is forming the generalized inverse of G from B-inverse, IUseBI=4.
 Internal  Forces:  Max     0.014049590 RMS     0.002860741
 Search for a local minimum.
 Step number   1 out of a maximum of  108
 All quantities printed in internal units (Hartrees-Bohrs-Radians)
 Mixed Optimization -- RFO/linear search
 Second derivative matrix not updated -- first step.
 ITU=  0
     Eigenvalues ---    0.01142   0.01300   0.01642   0.01721   0.01831
     Eigenvalues ---    0.01919   0.02128   0.03015   0.03189   0.03653
     Eigenvalues ---    0.03829   0.04439   0.04778   0.05226   0.05352
     Eigenvalues ---    0.06018   0.06718   0.07647   0.08469   0.08527
     Eigenvalues ---    0.10215   0.10710   0.11289   0.11952   0.15284
     Eigenvalues ---    0.15925   0.15966   0.17646   0.19626   0.19891
     Eigenvalues ---    0.24256   0.25733   0.26429   0.27993   0.28116
     Eigenvalues ---    0.30965   0.31867   0.34800   0.34888   0.35117
     Eigenvalues ---    0.35134   0.35825   0.36043   0.36052   0.36254
     Eigenvalues ---    0.36607   0.36619   0.52855
 RFO step:  Lambda=-4.81025411D-03 EMin= 1.14178244D-02
 Linear search not attempted -- first point.
 Iteration  1 RMS(Cart)=  0.03970679 RMS(Int)=  0.00057169
 Iteration  2 RMS(Cart)=  0.00064740 RMS(Int)=  0.00019182
 Iteration  3 RMS(Cart)=  0.00000014 RMS(Int)=  0.00019182
 Variable       Old X    -DE/DX   Delta X   Delta X   Delta X     New X
                                 (Linear)    (Quad)   (Total)
    R1        2.91766   0.01405   0.00000   0.05000   0.04998   2.96763
    R2        2.84328   0.00249   0.00000   0.01054   0.00989   2.85317
    R3        2.83142   0.00326   0.00000   0.01022   0.01051   2.84194
    R4        2.04014   0.00164   0.00000   0.00448   0.00448   2.04462
    R5        2.84893   0.00830   0.00000   0.02482   0.02480   2.87373
    R6        2.91225   0.00642   0.00000   0.02210   0.02221   2.93446
    R7        2.05458   0.00058   0.00000   0.00162   0.00162   2.05620
    R8        2.50918   0.00701   0.00000   0.00973   0.00967   2.51885
    R9        2.03143   0.00449   0.00000   0.01211   0.01211   2.04354
   R10        2.84892   0.00831   0.00000   0.02486   0.02484   2.87376
   R11        2.03124   0.00456   0.00000   0.01228   0.01228   2.04352
   R12        2.91229   0.00641   0.00000   0.02209   0.02220   2.93449
   R13        2.91767   0.01404   0.00000   0.04995   0.04993   2.96760
   R14        2.05486   0.00049   0.00000   0.00137   0.00137   2.05622
   R15        2.06001   0.00133   0.00000   0.00377   0.00377   2.06378
   R16        2.05857   0.00231   0.00000   0.00652   0.00652   2.06508
   R17        2.83145   0.00324   0.00000   0.01015   0.01043   2.84189
   R18        2.04000   0.00169   0.00000   0.00462   0.00462   2.04462
   R19        2.03687   0.00117   0.00000   0.00319   0.00319   2.04006
   R20        2.04357   0.00184   0.00000   0.00508   0.00508   2.04864
    A1        1.80888  -0.00011   0.00000  -0.00551  -0.00543   1.80345
    A2        2.09396   0.00591   0.00000   0.03939   0.03907   2.13303
    A3        2.03534  -0.00008   0.00000  -0.00380  -0.00426   2.03108
    A4        2.15320  -0.00043   0.00000  -0.01696  -0.01716   2.13605
    A5        2.08865  -0.00511   0.00000  -0.02023  -0.02042   2.06823
    A6        1.89500   0.00334   0.00000   0.03621   0.03628   1.93127
    A7        1.73557  -0.00071   0.00000  -0.00414  -0.00444   1.73113
    A8        1.98952  -0.00107   0.00000  -0.01315  -0.01314   1.97638
    A9        1.73263  -0.00035   0.00000  -0.00045  -0.00044   1.73219
   A10        2.02688  -0.00095   0.00000  -0.00929  -0.00939   2.01749
   A11        2.04721   0.00008   0.00000  -0.00458  -0.00458   2.04263
   A12        1.87581  -0.00068   0.00000  -0.00421  -0.00429   1.87152
   A13        2.16604   0.00225   0.00000   0.01290   0.01255   2.17859
   A14        2.23979  -0.00164   0.00000  -0.01082  -0.01112   2.22867
   A15        1.87562  -0.00064   0.00000  -0.00400  -0.00408   1.87154
   A16        2.23986  -0.00166   0.00000  -0.01091  -0.01121   2.22865
   A17        2.16615   0.00223   0.00000   0.01279   0.01244   2.17859
   A18        1.73271  -0.00037   0.00000  -0.00056  -0.00054   1.73217
   A19        1.89516   0.00333   0.00000   0.03608   0.03614   1.93130
   A20        2.02672  -0.00093   0.00000  -0.00916  -0.00925   2.01747
   A21        1.73542  -0.00068   0.00000  -0.00394  -0.00424   1.73118
   A22        2.04718   0.00008   0.00000  -0.00457  -0.00456   2.04262
   A23        1.98961  -0.00109   0.00000  -0.01326  -0.01325   1.97636
   A24        1.62056  -0.00044   0.00000  -0.01479  -0.01504   1.60552
   A25        1.97739   0.00048   0.00000   0.00722   0.00733   1.98472
   A26        1.97950  -0.00027   0.00000  -0.00265  -0.00267   1.97683
   A27        1.97731   0.00049   0.00000   0.00731   0.00742   1.98473
   A28        1.97940  -0.00027   0.00000  -0.00258  -0.00260   1.97680
   A29        1.91616  -0.00002   0.00000   0.00337   0.00332   1.91948
   A30        1.80898  -0.00014   0.00000  -0.00570  -0.00560   1.80337
   A31        2.15310  -0.00041   0.00000  -0.01682  -0.01703   2.13607
   A32        2.09380   0.00591   0.00000   0.03949   0.03917   2.13297
   A33        2.03537  -0.00008   0.00000  -0.00382  -0.00428   2.03108
   A34        2.08877  -0.00511   0.00000  -0.02028  -0.02047   2.06830
   A35        2.09966  -0.00178   0.00000  -0.00105  -0.00102   2.09865
   A36        2.03048   0.00138   0.00000  -0.00377  -0.00363   2.02685
   A37        2.09965  -0.00176   0.00000  -0.00105  -0.00102   2.09864
   A38        2.03077   0.00136   0.00000  -0.00404  -0.00391   2.02686
   A39        1.97979   0.00065   0.00000   0.00595   0.00589   1.98568
    D1       -1.15121   0.00058   0.00000   0.00783   0.00794  -1.14327
    D2        0.64982   0.00077   0.00000   0.01478   0.01485   0.66467
    D3        2.84285  -0.00017   0.00000  -0.00043  -0.00025   2.84260
    D4       -0.05442   0.00056   0.00000   0.00393   0.00343  -0.05099
    D5        1.74660   0.00075   0.00000   0.01088   0.01035   1.75695
    D6       -2.34356  -0.00019   0.00000  -0.00433  -0.00475  -2.34831
    D7        2.70597   0.00140   0.00000   0.04202   0.04207   2.74804
    D8       -1.77619   0.00158   0.00000   0.04897   0.04899  -1.72721
    D9        0.41684   0.00064   0.00000   0.03376   0.03389   0.45072
   D10        0.00023  -0.00001   0.00000  -0.00021  -0.00021   0.00002
   D11       -2.36277   0.00069   0.00000   0.02957   0.02934  -2.33342
   D12        2.36317  -0.00070   0.00000  -0.02987  -0.02964   2.33353
   D13        0.00018   0.00000   0.00000  -0.00010  -0.00010   0.00008
   D14        0.36618   0.00197   0.00000   0.02972   0.02965   0.39583
   D15        2.86976   0.00265   0.00000   0.03366   0.03375   2.90351
   D16       -2.38258  -0.00008   0.00000  -0.01365  -0.01366  -2.39624
   D17        0.12099   0.00060   0.00000  -0.00970  -0.00956   0.11144
   D18        1.19542  -0.00112   0.00000  -0.00866  -0.00889   1.18653
   D19       -1.89071   0.00015   0.00000   0.02983   0.02988  -1.86082
   D20       -0.60766  -0.00104   0.00000  -0.01295  -0.01304  -0.62070
   D21        2.58940   0.00022   0.00000   0.02553   0.02573   2.61513
   D22       -2.81904  -0.00035   0.00000  -0.00159  -0.00177  -2.82080
   D23        0.37803   0.00092   0.00000   0.03689   0.03700   0.41503
   D24       -1.02204  -0.00131   0.00000  -0.02098  -0.02097  -1.04301
   D25       -3.06238  -0.00177   0.00000  -0.02366  -0.02361  -3.08599
   D26        1.02123  -0.00192   0.00000  -0.03218  -0.03218   0.98905
   D27        0.91098   0.00192   0.00000   0.01563   0.01564   0.92661
   D28       -1.12937   0.00146   0.00000   0.01296   0.01300  -1.11637
   D29        2.95425   0.00131   0.00000   0.00443   0.00443   2.95868
   D30        3.10842   0.00050   0.00000   0.00090   0.00090   3.10933
   D31        1.06808   0.00004   0.00000  -0.00177  -0.00174   1.06634
   D32       -1.13149  -0.00010   0.00000  -0.01030  -0.01031  -1.14180
   D33       -0.00003  -0.00000   0.00000   0.00004   0.00004   0.00001
   D34       -3.08296   0.00117   0.00000   0.03954   0.03916  -3.04380
   D35        3.08301  -0.00118   0.00000  -0.03957  -0.03919   3.04382
   D36        0.00008  -0.00000   0.00000  -0.00007  -0.00007   0.00001
   D37        0.60771   0.00105   0.00000   0.01288   0.01296   0.62067
   D38       -1.19528   0.00110   0.00000   0.00844   0.00868  -1.18660
   D39        2.81902   0.00035   0.00000   0.00154   0.00172   2.82074
   D40       -2.58945  -0.00022   0.00000  -0.02550  -0.02571  -2.61516
   D41        1.89074  -0.00016   0.00000  -0.02994  -0.02999   1.86075
   D42       -0.37814  -0.00092   0.00000  -0.03684  -0.03695  -0.41509
   D43       -0.91106  -0.00190   0.00000  -0.01553  -0.01554  -0.92659
   D44        1.12936  -0.00145   0.00000  -0.01294  -0.01298   1.11638
   D45       -2.95441  -0.00130   0.00000  -0.00427  -0.00427  -2.95868
   D46        1.02211   0.00132   0.00000   0.02096   0.02095   1.04307
   D47        3.06253   0.00177   0.00000   0.02355   0.02351   3.08604
   D48       -1.02124   0.00192   0.00000   0.03222   0.03222  -0.98902
   D49       -3.10835  -0.00050   0.00000  -0.00091  -0.00091  -3.10926
   D50       -1.06794  -0.00005   0.00000   0.00168   0.00165  -1.06628
   D51        1.13148   0.00011   0.00000   0.01035   0.01036   1.14184
   D52        1.15092  -0.00059   0.00000  -0.00758  -0.00769   1.14323
   D53        0.05410  -0.00057   0.00000  -0.00365  -0.00314   0.05096
   D54       -2.70628  -0.00140   0.00000  -0.04178  -0.04183  -2.74812
   D55       -0.65017  -0.00076   0.00000  -0.01446  -0.01453  -0.66471
   D56       -1.74699  -0.00074   0.00000  -0.01053  -0.00999  -1.75698
   D57        1.77581  -0.00157   0.00000  -0.04866  -0.04868   1.72713
   D58       -2.84312   0.00018   0.00000   0.00066   0.00047  -2.84265
   D59        2.34325   0.00019   0.00000   0.00459   0.00501   2.34827
   D60       -0.41714  -0.00064   0.00000  -0.03355  -0.03367  -0.45081
   D61       -0.36599  -0.00197   0.00000  -0.02998  -0.02991  -0.39590
   D62       -2.87002  -0.00264   0.00000  -0.03347  -0.03356  -2.90358
   D63        2.38275   0.00008   0.00000   0.01345   0.01346   2.39620
   D64       -0.12128  -0.00059   0.00000   0.00996   0.00981  -0.11147
         Item               Value     Threshold  Converged?
 Maximum Force            0.014050     0.000450     NO 
 RMS     Force            0.002861     0.000300     NO 
 Maximum Displacement     0.214358     0.001800     NO 
 RMS     Displacement     0.039603     0.001200     NO 
 Predicted change in Energy=-2.524363D-03
 GradGradGradGradGradGradGradGradGradGradGradGradGradGradGradGradGradGrad

                          Input orientation:                          
 ---------------------------------------------------------------------
 Center     Atomic      Atomic             Coordinates (Angstroms)
 Number     Number       Type             X           Y           Z
 ---------------------------------------------------------------------
      1          6           0        1.067225   -0.388895    0.754967
      2          6           0       -0.458755   -0.308515    1.117035
      3          6           0       -1.047776    1.019058    0.666295
      4          6           0       -1.047781    1.018770   -0.666623
      5          6           0       -0.458774   -0.309012   -1.116827
      6          6           0       -1.027159   -1.225692    0.000324
      7          6           0        1.067218   -0.389255   -0.754865
      8          6           0        1.770681    0.704948   -0.000241
      9          1           0        1.662889   -1.081567    1.334661
     10          1           0       -0.671402   -0.591994    2.145808
     11          1           0       -1.316768    1.831519    1.327325
     12          1           0       -1.316774    1.830955   -1.327978
     13          1           0       -0.671503   -0.592932   -2.145472
     14          1           0       -2.117130   -1.293924    0.000358
     15          1           0       -0.590360   -2.227395    0.000527
     16          1           0        1.662807   -1.082239   -1.334259
     17          1           0        1.372534    1.708400   -0.000498
     18          1           0        2.854027    0.664671   -0.000238
 ---------------------------------------------------------------------
                    Distance matrix (angstroms):
                    1          2          3          4          5
     1  C    0.000000
     2  C    1.570405   0.000000
     3  C    2.542326   1.520711   0.000000
     4  C    2.911304   2.300016   1.332918   0.000000
     5  C    2.416334   2.233862   2.300047   1.520730   0.000000
     6  C    2.378269   1.552848   2.341547   2.341550   1.552865
     7  C    1.509833   2.416428   2.911398   2.542350   1.570385
     8  C    1.503889   2.691803   2.913183   2.913122   2.691719
     9  H    1.081968   2.268556   3.493857   3.970426   3.332880
    10  H    2.235735   1.088096   2.219483   3.262820   3.281780
    11  H    3.307757   2.315201   1.081393   2.169964   3.360343
    12  H    3.866502   3.360300   2.169945   1.081383   2.315212
    13  H    3.387824   3.281784   3.262840   2.219496   1.088106
    14  H    3.395384   2.228947   2.633795   2.633805   2.228968
    15  H    2.587828   2.223962   3.345434   3.345431   2.223957
    16  H    2.280419   3.332944   3.970507   3.493890   2.268538
    17  H    2.250019   2.944562   2.603402   2.603312   2.944458
    18  H    2.207487   3.629039   3.974157   3.974111   3.628979
                    6          7          8          9         10
     6  C    0.000000
     7  C    2.378310   0.000000
     8  C    3.399306   1.503861   0.000000
     9  H    3.006258   2.280404   2.232761   0.000000
    10  H    2.265224   3.387892   3.500194   2.519237   0.000000
    11  H    3.345347   3.866619   3.544564   4.167071   2.638149
    12  H    3.345348   3.307749   3.544454   4.944777   4.284201
    13  H    2.265241   2.235715   3.500110   4.218942   4.291280
    14  H    1.092105   3.395418   4.371564   4.014225   2.680633
    15  H    1.092796   2.587845   3.764725   2.858315   2.698766
    16  H    3.006262   1.081966   2.232774   2.668920   4.218974
    17  H    3.790438   2.249987   1.079554   3.106585   3.751815
    18  H    4.317069   2.207466   1.084095   2.500023   4.314322
                   11         12         13         14         15
    11  H    0.000000
    12  H    2.655303   0.000000
    13  H    4.284233   2.638162   0.000000
    14  H    3.488527   3.488540   2.680636   0.000000
    15  H    4.331610   4.331605   2.698770   1.789524   0.000000
    16  H    4.944885   4.167090   2.519225   4.014217   2.858285
    17  H    3.001769   3.001599   3.751683   4.603445   4.398117
    18  H    4.529845   4.529756   4.314274   5.343080   4.497538
                   16         17         18
    16  H    0.000000
    17  H    3.106581   0.000000
    18  H    2.500062   1.812234   0.000000
 Stoichiometry    C8H10
 Framework group  C1[X(C8H10)]
 Deg. of freedom    48
 Full point group                 C1      NOp   1
 Largest Abelian subgroup         C1      NOp   1
 Largest concise Abelian subgroup C1      NOp   1
                         Standard orientation:                         
 ---------------------------------------------------------------------
 Center     Atomic      Atomic             Coordinates (Angstroms)
 Number     Number       Type             X           Y           Z
 ---------------------------------------------------------------------
      1          6           0        1.070669   -0.374594    0.754969
      2          6           0       -0.456186   -0.312331    1.116921
      3          6           0       -1.060818    1.008281    0.666405
      4          6           0       -1.060707    1.008271   -0.666514
      5          6           0       -0.456011   -0.312364   -1.116941
      6          6           0       -1.013616   -1.235930   -0.000029
      7          6           0        1.070794   -0.374640   -0.754864
      8          6           0        1.761211    0.727644    0.000048
      9          1           0        1.674429   -1.060299    1.334571
     10          1           0       -0.665554   -0.598517    2.145617
     11          1           0       -1.339449    1.817369    1.327579
     12          1           0       -1.339224    1.817356   -1.327724
     13          1           0       -0.665282   -0.598565   -2.145663
     14          1           0       -2.102704   -1.317039   -0.000104
     15          1           0       -0.565007   -2.232400    0.000004
     16          1           0        1.674580   -1.060417   -1.334349
     17          1           0        1.351231    1.726319   -0.000036
     18          1           0        2.844958    0.700173    0.000137
 ---------------------------------------------------------------------
 Rotational constants (GHZ):           3.4759759           2.4688593           2.4216424
 Standard basis: def2TZVP (5D, 7F)
 There are   348 symmetry adapted cartesian basis functions of A   symmetry.
 There are   308 symmetry adapted basis functions of A   symmetry.
   308 basis functions,   488 primitive gaussians,   348 cartesian basis functions
    29 alpha electrons       29 beta electrons
       nuclear repulsion energy       374.4850832758 Hartrees.
 NAtoms=   18 NActive=   18 NUniq=   18 SFac= 1.00D+00 NAtFMM=   60 NAOKFM=F Big=F
 Integral buffers will be    131072 words long.
 Raffenetti 2 integral format.
 Two-electron integral symmetry is turned on.
 One-electron integrals computed using PRISM.
   1 Symmetry operations used in ECPInt.
 ECPInt:  NShTT=    8256 NPrTT=   24516 LenC2=    8207 LenP2D=   20321.
 LDataN:  DoStor=T MaxTD1= 6 Len=  172
 NBasis=   308 RedAO= T EigKep=  3.04D-05  NBF=   308
 NBsUse=   308 1.00D-06 EigRej= -1.00D+00 NBFU=   308
 Initial guess from the checkpoint file:  "/tmp/Gau-3075806.chk"
 B after Tr=     0.000000    0.000000    0.000000
         Rot=    0.999867    0.000126    0.000061   -0.016299 Ang=   1.87 deg.
 ExpMin= 9.52D-02 ExpMax= 1.36D+04 ExpMxC= 4.63D+02 IAcc=3 IRadAn=         5 AccDes= 0.00D+00
 Harris functional with IExCor=  402 and IRadAn=       5 diagonalized for initial guess.
 HarFok:  IExCor=  402 AccDes= 0.00D+00 IRadAn=         5 IDoV= 1 UseB2=F ITyADJ=14
 ICtDFT=  3500011 ScaDFX=  1.000000  1.000000  1.000000  1.000000
 FoFCou: FMM=F IPFlag=           0 FMFlag=      100000 FMFlg1=           0
         NFxFlg=           0 DoJE=T BraDBF=F KetDBF=T FulRan=T
         wScrn=  0.000000 ICntrl=       500 IOpCl=  0 I1Cent=   200000004 NGrid=           0
         NMat0=    1 NMatS0=      1 NMatT0=    0 NMatD0=    1 NMtDS0=    0 NMtDT0=    0
 Petite list used in FoFCou.
 Requested convergence on RMS density matrix=1.00D-08 within 128 cycles.
 Requested convergence on MAX density matrix=1.00D-06.
 Requested convergence on             energy=1.00D-06.
 No special actions if energy rises.
 Integral accuracy reduced to 1.0D-05 until final iterations.
 Initial convergence to 1.0D-05 achieved.  Increase integral accuracy.
 SCF Done:  E(RB3LYP) =  -310.896083314     A.U. after   11 cycles
            NFock= 11  Conv=0.52D-08     -V/T= 2.0055
   1 Symmetry operations used in ECPInt.
 ECPInt:  NShTT=    8256 NPrTT=   24516 LenC2=    8207 LenP2D=   20321.
 LDataN:  DoStor=T MaxTD1= 7 Len=  274
 Calling FoFJK, ICntrl=      2127 FMM=F ISym2X=0 I1Cent= 0 IOpClX= 0 NMat=1 NMatS=1 NMatT=0.
 ***** Axes restored to original set *****
 -------------------------------------------------------------------
 Center     Atomic                   Forces (Hartrees/Bohr)
 Number     Number              X              Y              Z
 -------------------------------------------------------------------
      1        6          -0.001469160    0.000375033    0.000694073
      2        6          -0.000814173   -0.000528170    0.003337924
      3        6           0.003691206   -0.000654150    0.001902078
      4        6           0.003692949   -0.000659268   -0.001903151
      5        6          -0.000833310   -0.000526426   -0.003347907
      6        6           0.001570331    0.000001512   -0.000005624
      7        6          -0.001489977    0.000369853   -0.000683802
      8        6          -0.002835262    0.000791261    0.000004917
      9        1          -0.000203134   -0.000842954   -0.000565503
     10        1           0.000395727    0.000032015    0.000302482
     11        1          -0.000090294    0.000239986   -0.000421243
     12        1          -0.000092150    0.000244275    0.000415572
     13        1           0.000394535    0.000033777   -0.000297192
     14        1           0.000565360    0.000484392   -0.000001014
     15        1           0.000334412    0.000607572    0.000001291
     16        1          -0.000201517   -0.000843211    0.000566088
     17        1          -0.002052838    0.001391312    0.000000181
     18        1          -0.000562705   -0.000516808    0.000000830
 -------------------------------------------------------------------
 Cartesian Forces:  Max     0.003692949 RMS     0.001271160

 GradGradGradGradGradGradGradGradGradGradGradGradGradGradGradGradGradGrad
 Berny optimization.
 Using GEDIIS/GDIIS optimizer.
 FormGI is forming the generalized inverse of G from B-inverse, IUseBI=4.
 Internal  Forces:  Max     0.004079305 RMS     0.001209574
 Search for a local minimum.
 Step number   2 out of a maximum of  108
 All quantities printed in internal units (Hartrees-Bohrs-Radians)
 Mixed Optimization -- RFO/linear search
 Update second derivatives using D2CorX and points    1    2
 DE= -1.39D-03 DEPred=-2.52D-03 R= 5.52D-01
 TightC=F SS=  1.41D+00  RLast= 2.22D-01 DXNew= 5.0454D-01 6.6528D-01
 Trust test= 5.52D-01 RLast= 2.22D-01 DXMaxT set to 5.05D-01
 ITU=  1  0
 Use linear search instead of GDIIS.
     Eigenvalues ---    0.01112   0.01295   0.01674   0.01711   0.01855
     Eigenvalues ---    0.01916   0.02097   0.03021   0.03186   0.03672
     Eigenvalues ---    0.03813   0.04383   0.04858   0.05109   0.05623
     Eigenvalues ---    0.06083   0.06691   0.07871   0.08418   0.09075
     Eigenvalues ---    0.10630   0.11077   0.11096   0.11747   0.15006
     Eigenvalues ---    0.15706   0.15790   0.17577   0.19822   0.21720
     Eigenvalues ---    0.24173   0.25301   0.26603   0.28138   0.29989
     Eigenvalues ---    0.31670   0.32126   0.34829   0.34895   0.35119
     Eigenvalues ---    0.35135   0.35818   0.35997   0.36048   0.36331
     Eigenvalues ---    0.36613   0.36772   0.52306
 RFO step:  Lambda=-3.70099434D-04 EMin= 1.11186679D-02
 Quartic linear search produced a step of -0.29244.
 Iteration  1 RMS(Cart)=  0.01751385 RMS(Int)=  0.00012615
 Iteration  2 RMS(Cart)=  0.00014778 RMS(Int)=  0.00004446
 Iteration  3 RMS(Cart)=  0.00000001 RMS(Int)=  0.00004446
 Variable       Old X    -DE/DX   Delta X   Delta X   Delta X     New X
                                 (Linear)    (Quad)   (Total)
    R1        2.96763  -0.00408  -0.01462   0.00747  -0.00715   2.96049
    R2        2.85317   0.00111  -0.00289   0.00424   0.00137   2.85454
    R3        2.84194  -0.00069  -0.00307   0.00234  -0.00074   2.84119
    R4        2.04462   0.00013  -0.00131   0.00188   0.00057   2.04520
    R5        2.87373  -0.00156  -0.00725   0.00616  -0.00110   2.87263
    R6        2.93446   0.00069  -0.00649   0.00969   0.00320   2.93766
    R7        2.05620   0.00020  -0.00047   0.00099   0.00052   2.05673
    R8        2.51885   0.00212  -0.00283   0.00713   0.00429   2.52314
    R9        2.04354  -0.00005  -0.00354   0.00433   0.00078   2.04432
   R10        2.87376  -0.00157  -0.00726   0.00615  -0.00112   2.87265
   R11        2.04352  -0.00005  -0.00359   0.00440   0.00081   2.04433
   R12        2.93449   0.00068  -0.00649   0.00966   0.00318   2.93767
   R13        2.96760  -0.00407  -0.01460   0.00748  -0.00712   2.96047
   R14        2.05622   0.00019  -0.00040   0.00089   0.00049   2.05671
   R15        2.06378  -0.00059  -0.00110   0.00017  -0.00093   2.06285
   R16        2.06508  -0.00043  -0.00191   0.00152  -0.00038   2.06470
   R17        2.84189  -0.00068  -0.00305   0.00234  -0.00072   2.84117
   R18        2.04462   0.00013  -0.00135   0.00194   0.00059   2.04521
   R19        2.04006   0.00205  -0.00093   0.00516   0.00422   2.04429
   R20        2.04864  -0.00054  -0.00148   0.00079  -0.00070   2.04795
    A1        1.80345   0.00066   0.00159   0.00306   0.00466   1.80811
    A2        2.13303  -0.00354  -0.01143  -0.00420  -0.01554   2.11749
    A3        2.03108   0.00052   0.00125   0.00386   0.00523   2.03631
    A4        2.13605  -0.00083   0.00502  -0.01021  -0.00516   2.13089
    A5        2.06823   0.00281   0.00597   0.00218   0.00823   2.07646
    A6        1.93127  -0.00278  -0.01061  -0.01032  -0.02094   1.91034
    A7        1.73113  -0.00033   0.00130  -0.00508  -0.00375   1.72739
    A8        1.97638   0.00087   0.00384   0.00008   0.00394   1.98032
    A9        1.73219   0.00047   0.00013   0.00238   0.00240   1.73459
   A10        2.01749   0.00093   0.00275   0.00505   0.00775   2.02524
   A11        2.04263   0.00048   0.00134   0.00638   0.00772   2.05034
   A12        1.87152   0.00035   0.00125   0.00263   0.00390   1.87543
   A13        2.17859   0.00031  -0.00367   0.00475   0.00118   2.17977
   A14        2.22867  -0.00063   0.00325  -0.00805  -0.00472   2.22395
   A15        1.87154   0.00034   0.00119   0.00269   0.00390   1.87544
   A16        2.22865  -0.00062   0.00328  -0.00807  -0.00471   2.22394
   A17        2.17859   0.00031  -0.00364   0.00471   0.00117   2.17976
   A18        1.73217   0.00048   0.00016   0.00236   0.00240   1.73457
   A19        1.93130  -0.00279  -0.01057  -0.01036  -0.02094   1.91036
   A20        2.01747   0.00092   0.00271   0.00510   0.00775   2.02522
   A21        1.73118  -0.00033   0.00124  -0.00505  -0.00378   1.72740
   A22        2.04262   0.00048   0.00133   0.00639   0.00772   2.05034
   A23        1.97636   0.00087   0.00387   0.00006   0.00395   1.98032
   A24        1.60552   0.00103   0.00440   0.00562   0.01004   1.61556
   A25        1.98472  -0.00052  -0.00214  -0.00047  -0.00264   1.98208
   A26        1.97683  -0.00025   0.00078  -0.00343  -0.00262   1.97421
   A27        1.98473  -0.00052  -0.00217  -0.00045  -0.00264   1.98208
   A28        1.97680  -0.00025   0.00076  -0.00339  -0.00260   1.97420
   A29        1.91948   0.00049  -0.00097   0.00215   0.00117   1.92065
   A30        1.80337   0.00067   0.00164   0.00306   0.00471   1.80808
   A31        2.13607  -0.00083   0.00498  -0.01019  -0.00517   2.13091
   A32        2.13297  -0.00353  -0.01146  -0.00415  -0.01553   2.11745
   A33        2.03108   0.00051   0.00125   0.00384   0.00521   2.03630
   A34        2.06830   0.00281   0.00599   0.00216   0.00822   2.07651
   A35        2.09865   0.00105   0.00030  -0.00391  -0.00360   2.09505
   A36        2.02685  -0.00203   0.00106  -0.00206  -0.00102   2.02583
   A37        2.09864   0.00105   0.00030  -0.00390  -0.00359   2.09505
   A38        2.02686  -0.00203   0.00114  -0.00214  -0.00102   2.02584
   A39        1.98568   0.00088  -0.00172   0.00704   0.00532   1.99100
    D1       -1.14327  -0.00045  -0.00232   0.00022  -0.00213  -1.14540
    D2        0.66467  -0.00079  -0.00434  -0.00199  -0.00632   0.65834
    D3        2.84260   0.00001   0.00007   0.00245   0.00248   2.84508
    D4       -0.05099  -0.00028  -0.00100   0.00181   0.00084  -0.05015
    D5        1.75695  -0.00062  -0.00303  -0.00040  -0.00336   1.75359
    D6       -2.34831   0.00018   0.00139   0.00404   0.00544  -2.34286
    D7        2.74804  -0.00038  -0.01230   0.00833  -0.00402   2.74402
    D8       -1.72721  -0.00072  -0.01433   0.00612  -0.00822  -1.73542
    D9        0.45072   0.00008  -0.00991   0.01056   0.00059   0.45131
   D10        0.00002   0.00000   0.00006  -0.00005   0.00001   0.00003
   D11       -2.33342  -0.00074  -0.00858   0.00030  -0.00821  -2.34163
   D12        2.33353   0.00074   0.00867  -0.00039   0.00821   2.34174
   D13        0.00008  -0.00000   0.00003  -0.00004  -0.00001   0.00007
   D14        0.39583  -0.00165  -0.00867  -0.00930  -0.01795   0.37789
   D15        2.90351  -0.00154  -0.00987  -0.00502  -0.01487   2.88864
   D16       -2.39624  -0.00108   0.00399  -0.01623  -0.01228  -2.40852
   D17        0.11144  -0.00098   0.00279  -0.01195  -0.00920   0.10223
   D18        1.18653   0.00039   0.00260   0.00003   0.00266   1.18918
   D19       -1.86082   0.00005  -0.00874   0.00771  -0.00107  -1.86190
   D20       -0.62070   0.00126   0.00381   0.00726   0.01111  -0.60960
   D21        2.61513   0.00093  -0.00753   0.01494   0.00738   2.62251
   D22       -2.82080  -0.00018   0.00052  -0.00511  -0.00459  -2.82539
   D23        0.41503  -0.00052  -0.01082   0.00257  -0.00832   0.40671
   D24       -1.04301   0.00108   0.00613   0.00069   0.00681  -1.03620
   D25       -3.08599   0.00128   0.00691  -0.00156   0.00535  -3.08065
   D26        0.98905   0.00125   0.00941  -0.00117   0.00823   0.99729
   D27        0.92661  -0.00179  -0.00457  -0.01073  -0.01533   0.91129
   D28       -1.11637  -0.00159  -0.00380  -0.01298  -0.01679  -1.13316
   D29        2.95868  -0.00161  -0.00130  -0.01259  -0.01390   2.94477
   D30        3.10933  -0.00001  -0.00026   0.00091   0.00063   3.10996
   D31        1.06634   0.00019   0.00051  -0.00134  -0.00083   1.06551
   D32       -1.14180   0.00017   0.00301  -0.00095   0.00206  -1.13974
   D33        0.00001   0.00000  -0.00001  -0.00000  -0.00001  -0.00000
   D34       -3.04380  -0.00042  -0.01145   0.00702  -0.00429  -3.04809
   D35        3.04382   0.00042   0.01146  -0.00703   0.00428   3.04810
   D36        0.00001   0.00000   0.00002  -0.00002   0.00000   0.00001
   D37        0.62067  -0.00127  -0.00379  -0.00725  -0.01108   0.60959
   D38       -1.18660  -0.00038  -0.00254  -0.00003  -0.00260  -1.18920
   D39        2.82074   0.00018  -0.00050   0.00513   0.00463   2.82537
   D40       -2.61516  -0.00093   0.00752  -0.01492  -0.00736  -2.62252
   D41        1.86075  -0.00004   0.00877  -0.00769   0.00112   1.86187
   D42       -0.41509   0.00052   0.01081  -0.00253   0.00834  -0.40675
   D43       -0.92659   0.00178   0.00454   0.01075   0.01532  -0.91128
   D44        1.11638   0.00159   0.00379   0.01298   0.01678   1.13317
   D45       -2.95868   0.00161   0.00125   0.01265   0.01391  -2.94477
   D46        1.04307  -0.00108  -0.00613  -0.00071  -0.00683   1.03624
   D47        3.08604  -0.00128  -0.00688   0.00151  -0.00536   3.08068
   D48       -0.98902  -0.00126  -0.00942   0.00118  -0.00824  -0.99726
   D49       -3.10926   0.00000   0.00027  -0.00093  -0.00066  -3.10992
   D50       -1.06628  -0.00019  -0.00048   0.00130   0.00081  -1.06547
   D51        1.14184  -0.00017  -0.00303   0.00096  -0.00206   1.13978
   D52        1.14323   0.00045   0.00225  -0.00017   0.00210   1.14533
   D53        0.05096   0.00028   0.00092  -0.00176  -0.00087   0.05009
   D54       -2.74812   0.00038   0.01223  -0.00827   0.00401  -2.74410
   D55       -0.66471   0.00079   0.00425   0.00207   0.00631  -0.65840
   D56       -1.75698   0.00062   0.00292   0.00048   0.00334  -1.75364
   D57        1.72713   0.00072   0.01424  -0.00603   0.00822   1.73535
   D58       -2.84265  -0.00001  -0.00014  -0.00239  -0.00249  -2.84514
   D59        2.34827  -0.00018  -0.00147  -0.00398  -0.00546   2.34280
   D60       -0.45081  -0.00008   0.00985  -0.01049  -0.00058  -0.45139
   D61       -0.39590   0.00165   0.00875   0.00928   0.01801  -0.37790
   D62       -2.90358   0.00154   0.00981   0.00512   0.01491  -2.88866
   D63        2.39620   0.00108  -0.00394   0.01620   0.01231   2.40851
   D64       -0.11147   0.00098  -0.00287   0.01204   0.00921  -0.10225
         Item               Value     Threshold  Converged?
 Maximum Force            0.004079     0.000450     NO 
 RMS     Force            0.001210     0.000300     NO 
 Maximum Displacement     0.105251     0.001800     NO 
 RMS     Displacement     0.017555     0.001200     NO 
 Predicted change in Energy=-4.294100D-04
 GradGradGradGradGradGradGradGradGradGradGradGradGradGradGradGradGradGrad

                          Input orientation:                          
 ---------------------------------------------------------------------
 Center     Atomic      Atomic             Coordinates (Angstroms)
 Number     Number       Type             X           Y           Z
 ---------------------------------------------------------------------
      1          6           0        1.061546   -0.395604    0.755342
      2          6           0       -0.459120   -0.316689    1.123654
      3          6           0       -1.021852    1.019716    0.667423
      4          6           0       -1.021878    1.019422   -0.667763
      5          6           0       -0.459163   -0.317185   -1.123456
      6          6           0       -1.028258   -1.228168    0.000314
      7          6           0        1.061519   -0.395971   -0.755214
      8          6           0        1.741275    0.712355   -0.000232
      9          1           0        1.665543   -1.085335    1.330470
     10          1           0       -0.670680   -0.597576    2.153654
     11          1           0       -1.279849    1.839344    1.324657
     12          1           0       -1.279897    1.838775   -1.325339
     13          1           0       -0.670798   -0.598506   -2.153315
     14          1           0       -2.117999   -1.292080    0.000350
     15          1           0       -0.594312   -2.230889    0.000522
     16          1           0        1.665442   -1.086018   -1.330049
     17          1           0        1.316837    1.707403   -0.000472
     18          1           0        2.824844    0.693906   -0.000243
 ---------------------------------------------------------------------
                    Distance matrix (angstroms):
                    1          2          3          4          5
     1  C    0.000000
     2  C    1.566623   0.000000
     3  C    2.520200   1.520129   0.000000
     4  C    2.892782   2.304575   1.335187   0.000000
     5  C    2.418385   2.247110   2.304598   1.520139   0.000000
     6  C    2.372870   1.554544   2.344794   2.344788   1.554548
     7  C    1.510556   2.418424   2.892836   2.520224   1.566615
     8  C    1.503495   2.676526   2.859214   2.859179   2.676474
     9  H    1.082272   2.268873   3.477493   3.955398   3.335593
    10  H    2.235325   1.088372   2.224373   3.270843   3.295877
    11  H    3.286525   2.315703   1.081809   2.169922   3.364135
    12  H    3.847601   3.364115   2.169919   1.081813   2.315712
    13  H    3.391529   3.295869   3.270848   2.224368   1.088366
    14  H    3.388685   2.228245   2.644036   2.644030   2.228250
    15  H    2.584548   2.223480   3.345740   3.345734   2.223478
    16  H    2.278205   3.335610   3.955447   3.477527   2.268862
    17  H    2.249237   2.917985   2.527541   2.527486   2.917915
    18  H    2.206164   3.615089   3.917780   3.917757   3.615054
                    6          7          8          9         10
     6  C    0.000000
     7  C    2.372877   0.000000
     8  C    3.381708   1.503481   0.000000
     9  H    3.007704   2.278189   2.237900   0.000000
    10  H    2.272088   3.391559   3.488936   2.524574   0.000000
    11  H    3.350644   3.847662   3.486062   4.150797   2.645166
    12  H    3.350644   3.286542   3.486002   4.927409   4.290727
    13  H    2.272085   2.235314   3.488871   4.222825   4.306969
    14  H    1.091613   3.388690   4.348765   4.015862   2.685849
    15  H    1.092592   2.584538   3.757346   2.861467   2.703612
    16  H    3.007673   1.082277   2.237925   2.660519   4.222822
    17  H    3.757267   2.249224   1.081790   3.113261   3.728728
    18  H    4.305900   2.206158   1.083726   2.506088   4.304171
                   11         12         13         14         15
    11  H    0.000000
    12  H    2.649997   0.000000
    13  H    4.290728   2.645162   0.000000
    14  H    3.501729   3.501731   2.685834   0.000000
    15  H    4.334754   4.334754   2.703616   1.789688   0.000000
    16  H    4.927469   4.150838   2.524570   4.015825   2.861405
    17  H    2.918245   2.918143   3.728625   4.560154   4.377515
    18  H    4.462723   4.462679   4.304134   5.326898   4.499450
                   16         17         18
    16  H    0.000000
    17  H    3.113278   0.000000
    18  H    2.506138   1.816937   0.000000
 Stoichiometry    C8H10
 Framework group  C1[X(C8H10)]
 Deg. of freedom    48
 Full point group                 C1      NOp   1
 Largest Abelian subgroup         C1      NOp   1
 Largest concise Abelian subgroup C1      NOp   1
                         Standard orientation:                         
 ---------------------------------------------------------------------
 Center     Atomic      Atomic             Coordinates (Angstroms)
 Number     Number       Type             X           Y           Z
 ---------------------------------------------------------------------
      1          6           0        1.060086   -0.390882    0.755322
      2          6           0       -0.460677   -0.313479    1.123557
      3          6           0       -1.024649    1.022477    0.667541
      4          6           0       -1.024594    1.022431   -0.667646
      5          6           0       -0.460582   -0.313556   -1.123553
      6          6           0       -1.028881   -1.225288    0.000012
      7          6           0        1.060151   -0.390967   -0.755234
      8          6           0        1.738809    0.717863   -0.000004
      9          1           0        1.664702   -1.080146    1.330359
     10          1           0       -0.672032   -0.594758    2.153491
     11          1           0       -1.283464    1.841737    1.324911
     12          1           0       -1.283350    1.841661   -1.325085
     13          1           0       -0.671888   -0.594886   -2.153478
     14          1           0       -2.118560   -1.290234   -0.000030
     15          1           0       -0.593983   -2.227596    0.000060
     16          1           0        1.664765   -1.080333   -1.330160
     17          1           0        1.313427    1.712508   -0.000084
     18          1           0        2.822395    0.700443    0.000048
 ---------------------------------------------------------------------
 Rotational constants (GHZ):           3.4504144           2.5037539           2.4527820
 Standard basis: def2TZVP (5D, 7F)
 There are   348 symmetry adapted cartesian basis functions of A   symmetry.
 There are   308 symmetry adapted basis functions of A   symmetry.
   308 basis functions,   488 primitive gaussians,   348 cartesian basis functions
    29 alpha electrons       29 beta electrons
       nuclear repulsion energy       375.1640161788 Hartrees.
 NAtoms=   18 NActive=   18 NUniq=   18 SFac= 1.00D+00 NAtFMM=   60 NAOKFM=F Big=F
 Integral buffers will be    131072 words long.
 Raffenetti 2 integral format.
 Two-electron integral symmetry is turned on.
 One-electron integrals computed using PRISM.
   1 Symmetry operations used in ECPInt.
 ECPInt:  NShTT=    8256 NPrTT=   24516 LenC2=    8207 LenP2D=   20334.
 LDataN:  DoStor=T MaxTD1= 6 Len=  172
 NBasis=   308 RedAO= T EigKep=  3.03D-05  NBF=   308
 NBsUse=   308 1.00D-06 EigRej= -1.00D+00 NBFU=   308
 Initial guess from the checkpoint file:  "/tmp/Gau-3075806.chk"
 B after Tr=    -0.000000   -0.000000   -0.000000
[...]
 3046,-0.0401896,-0.032091,-0.0683246,-0.1723001,-0.0775791,-0.1114458,
 0.0000299,-0.0781826,-0.0603462,0.0000316,0.0000225,0.0000324,0.069088
 7,-0.0549975,0.0605937,-0.0513371,0.0461754,-0.0158696,0.1097788,-0.01
 24857,0.0571386,0.011654,0.0181604,-0.0113341,0.045525,-0.0013468,0.02
 96467,0.0515993,0.0396928,0.0516267,-0.1582712,0.1348476,0.0472312,0.0
 016641,0.0797927,-0.049353,-0.0865765,0.0123859,-0.055592,0.0236625,0.
 1348466,0.0472342,-0.0016927,0.079793,-0.0492893,0.0866043,-0.0124294,
 0.0556222,0.0235992,0.0181549,-0.0113577,-0.045531,-0.0013679,0.029600
 2,-0.0516836,-0.0397035,-0.0517104,-0.1582195,-0.2013312,-0.0724323,0.
 0000247,-0.0024824,0.0299524,0.0000064,0.000009,0.0000087,0.0580261,0.
 0205769,0.1092835,-0.0000232,0.0430773,-0.1739193,0.0000516,-0.0000083
 ,0.0000496,0.0619612,-0.0549929,0.0606125,0.0513139,0.0461741,-0.01594
 48,-0.1097693,0.01247,-0.0571305,0.0117241,0.0656303,0.0556341,-0.0000
 132,-0.0201909,-0.07855,0.000028,0.0000038,0.0000256,0.0429867,-0.1492
 44,-0.045575,0.0000183,-0.0030963,0.0402951,0.0000151,0.0000087,0.0000
 165,0.1070519\Polar=83.7952233,-0.1759284,79.6826212,-0.0000228,0.0004
 694,81.6958589\Quadrupole=-0.8875176,0.4359379,0.4515797,-0.8389653,0.
 0002324,0.0000332\PG=C01 [X(C8H10)]\NImag=0\\0.47526601,-0.08450438,0.
 42883440,0.05130994,-0.19174451,0.45673289,-0.11464496,0.01286898,0.00
 594490,0.34544873,-0.00214225,-0.06944800,0.01778973,-0.01312751,0.407
 13690,0.01127092,0.00852615,-0.06568148,-0.04385661,-0.08857622,0.6589
 4792,-0.02073306,0.02784041,-0.00373278,-0.07434396,0.03291020,-0.0063
 0532,0.20138492,0.01587281,-0.00303347,-0.00676791,0.02987204,-0.15094
 713,0.02312885,-0.13014951,0.53157225,-0.01180245,-0.00032193,0.006236
 41,-0.00344154,0.02600308,-0.09520768,-0.03139401,0.13298054,0.8040034
 2,-0.00317729,0.00077451,-0.00011014,0.00418598,0.00781897,-0.01318822
 ,-0.05670659,0.01205483,0.00523175,0.20138921,0.00243561,-0.00217696,-
 0.00105758,0.00411349,-0.00784888,0.03246329,0.01205247,-0.09917440,0.
 00027042,-0.13014426,0.53145303,0.00497588,0.00090018,-0.00696896,-0.0
 1353756,0.02940445,-0.02507205,-0.00526685,-0.00045516,-0.50798263,0.0
 3149207,-0.13284908,0.80411897,-0.00607845,-0.00166928,-0.02630437,-0.
 01061906,0.00256296,-0.00084635,0.00418769,0.00411745,0.01353381,-0.07
 434336,0.02987232,0.00342681,0.34545264,0.00544890,-0.00051486,0.00522
 094,0.00256305,0.00041888,-0.00419508,0.00782299,-0.00787668,-0.029412
 67,0.03291162,-0.15096969,-0.02598031,-0.01310235,0.40721735,-0.025270
 40,0.00155208,-0.02405966,0.00084203,0.00416806,-0.05932299,0.01318280
 ,-0.03247129,-0.02504597,0.00628928,-0.02310595,-0.09518636,0.04388197
 ,0.08869024,0.65886320,-0.03700300,-0.02685161,-0.00515081,-0.06847824
 ,-0.01582820,-0.01772864,0.00322888,0.01057885,0.00633047,0.00322806,0
 .01057694,-0.00633547,-0.06847571,-0.01581822,0.01773369,0.61659164,-0
 .00907962,-0.00103032,0.00158801,-0.01508864,-0.09355831,-0.02736256,-
 0.00751032,-0.04400699,-0.01530558,-0.00751216,-0.04399391,0.01532561,
 -0.01507741,-0.09353159,0.02735987,-0.03699940,0.58075875,-0.01057054,
 -0.00132795,-0.00068139,-0.02124301,-0.03253215,-0.10211806,0.00629810
 ,-0.01396192,-0.00052491,-0.00629497,0.01398079,-0.00053722,0.02124771
 ,0.03252949,-0.10214768,-0.00000116,-0.00005582,0.32806180,-0.05009089
 ,0.02031963,-0.01123701,-0.00607507,0.00545986,0.02526682,-0.00317762,
 0.00243344,-0.00497727,-0.02073207,0.01587859,0.01179711,-0.11464429,-
 0.00214860,-0.01126639,-0.03700195,-0.00907495,0.01057692,0.47525646,0
 .02032283,-0.04267364,-0.02965551,-0.00165762,-0.00051789,-0.00156250,
 0.00077451,-0.00217690,-0.00090238,0.02784206,-0.00303028,0.00032428,0
 .01286572,-0.06945982,-0.00852525,-0.02684917,-0.00103044,0.00132982,-
 0.08451414,0.42900719,0.01122006,0.02959550,-0.17377362,0.02630394,-0.
 00523184,-0.02405995,0.00010955,0.00105527,-0.00696873,0.00372198,0.00
 677107,0.00623223,-0.00594701,-0.01778790,-0.06566847,0.00516516,-0.00
 158727,-0.00068228,-0.05127362,0.19176311,0.45656861,-0.09248814,-0.03
 582865,0.05312672,-0.00946184,-0.02038328,-0.00312831,-0.00433131,-0.0
 0285293,0.00003126,-0.00433132,-0.00285295,-0.00002968,-0.00946205,-0.
 02038208,0.00313774,-0.01130554,0.00014278,0.00000032,-0.09249345,-0.0
 3585658,-0.05310859,0.63689747,-0.02990627,-0.14161308,0.09674461,-0.0
 0445371,0.00970721,-0.00310819,0.00033934,-0.00046609,0.00254379,0.000
 33901,-0.00046722,-0.00254349,-0.00445670,0.00970703,0.00310175,0.0007
 3279,-0.00038601,-0.00000006,-0.02992475,-0.14168333,-0.09670569,-0.02
 947160,0.62671630,0.02709491,0.05902970,-0.05859291,0.00702706,0.00355
 252,-0.00529484,0.00029125,-0.00009322,0.00025993,-0.00029111,0.000093
 73,0.00026104,-0.00702479,-0.00355792,-0.00529436,0.00000017,-0.000000
 05,-0.00057304,-0.02707944,-0.05899045,-0.05851807,-0.00000678,-0.0000
 9205,0.21143688,-0.13899624,0.10909843,-0.08551465,-0.01101004,0.01659
 888,-0.01316168,-0.00303641,-0.00210408,0.00125780,-0.00000412,0.00041
 269,-0.00112290,-0.00201209,-0.00012339,-0.00032911,0.00025634,0.00072
 074,-0.00015246,-0.00197069,-0.00043584,0.00276940,0.00882230,-0.01196
 488,0.00910393,0.14573338,0.10824066,-0.15863608,0.10325974,-0.0006449
 8,-0.00106302,0.00009618,0.00066520,0.00002542,-0.00015933,-0.00012820
 ,-0.00048797,-0.00064444,-0.00091085,0.00077594,-0.00261853,0.00039921
 ,0.00044027,-0.00013930,-0.01027984,0.00766959,-0.00419377,0.01502593,
 -0.01479950,0.01103720,-0.11105452,0.16566705,-0.08240118,0.10051773,-
 0.11654570,0.00691694,-0.00840804,0.00598006,0.00230096,0.00060082,-0.
 00001459,0.00045653,-0.00152909,0.00014848,0.00066058,0.00105497,-0.00
 316713,-0.00004893,0.00042359,-0.00060334,-0.01311797,0.01980169,-0.01
 097002,0.00176084,0.00032642,-0.00507969,0.08597990,-0.10997545,0.1261
 5624,-0.00383835,-0.00823596,0.02619827,-0.05660020,-0.01442101,0.0508
 5580,0.00181666,0.00147572,-0.01260755,-0.00001788,0.00203160,-0.00075
 007,-0.00164768,-0.00077334,-0.00258395,0.00246686,0.00605537,-0.01057
 324,-0.00376947,0.00040180,0.00180942,-0.00101952,0.00161199,0.0009880
 1,0.00116103,0.00011490,-0.00110664,0.06060859,-0.00007252,-0.00038944
 ,-0.00027786,-0.01360478,-0.06851027,0.06584308,-0.00778535,-0.0024100
 7,0.02622151,0.00228808,-0.00553205,0.00253594,-0.00053964,-0.00310556
 ,-0.00389613,0.00626587,0.00792494,-0.01621471,-0.00023090,0.00003875,
 -0.00224967,-0.00039302,-0.00019103,0.00020889,-0.00006258,0.00041407,
 -0.00022790,0.01253600,0.06832365,-0.00064502,0.00049822,-0.00172369,0
 .04990994,0.06673336,-0.28899240,0.00020669,-0.00048543,-0.00288218,0.
 00040817,0.00051277,-0.00057698,-0.00133351,-0.00185866,-0.00367202,0.
 00477860,0.00727485,-0.01218125,-0.00026071,-0.00027045,-0.00031620,0.
 00013442,-0.00024489,-0.00007421,0.00052399,-0.00030964,0.00040959,-0.
 05384441,-0.07304856,0.31019076,-0.00025991,0.00010095,-0.00002788,0.0
 0142418,0.00519983,0.00637859,-0.05283276,0.05727517,0.03648563,0.0050
 2703,0.00101386,0.00000623,0.00947886,0.00263817,0.00114078,-0.0006177
 6,0.00084584,-0.00120654,0.00099919,-0.00174152,-0.00138247,-0.0000374
 3,-0.00024685,-0.00020774,-0.00023628,-0.00001584,0.00010641,0.0000587
 8,-0.00023682,-0.00030283,0.04179448,-0.00042666,-0.00116379,0.0005215
 7,0.00122934,-0.00730103,-0.01472017,0.05976026,-0.22061237,-0.1346509
 7,-0.00021272,0.00571768,0.00418671,0.00222717,0.00086016,0.00136853,0
 .00208768,-0.00303697,0.00055111,0.00027380,-0.00032366,0.00002770,0.0
 0030119,0.00014452,0.00015989,0.00038733,-0.00010618,-0.00023332,-0.00
 044822,0.00077927,0.00058281,-0.06298716,0.22538067,0.00028293,0.00061
 354,-0.00023845,-0.00222892,0.00839029,0.00939193,0.03671986,-0.129445
 78,-0.15888915,0.00836562,-0.02578878,-0.00903479,-0.00123138,0.000756
 05,-0.00575172,-0.00089077,0.00263052,-0.00069615,-0.00046301,0.000084
 72,-0.00014965,0.00003413,-0.00053147,0.00010021,-0.00020582,0.0000710
 6,0.00012772,0.00055687,-0.00103721,0.00018551,-0.04202339,0.14433339,
 0.16321737,0.00099931,-0.00174092,0.00138318,0.00947888,0.00263760,-0.
 00114297,0.00502649,0.00101556,-0.00000760,-0.05283767,0.05726721,-0.0
 3651836,0.00142394,0.00519644,-0.00638042,-0.00061763,0.00084621,0.001
 20615,-0.00025993,0.00010092,0.00002783,-0.00003742,-0.00024672,0.0002
 0786,0.00053839,-0.00002095,-0.00014756,-0.00009110,0.00085838,-0.0000
 0816,-0.00517036,-0.00197956,0.00002882,0.04180006,0.00027401,-0.00032
 372,-0.00002764,0.00222764,0.00085920,-0.00137165,-0.00021675,0.005727
 40,-0.00419334,0.05975254,-0.22049335,0.13467463,0.00123133,-0.0072982
 3,0.01472763,0.00208805,-0.00303840,-0.00055019,-0.00042682,-0.0011643
 0,-0.00052112,0.00030116,0.00014468,-0.00015993,0.00019050,0.00012483,
 0.00005625,0.00007568,0.00052839,-0.00000670,-0.00197952,-0.00034349,0
 .00079837,-0.06297772,0.22525065,0.00046281,-0.00008452,-0.00014973,0.
 00122937,-0.00075919,-0.00575077,-0.00836645,0.02578208,-0.00904396,-0
 .03675372,0.12946964,-0.15900317,0.00222889,-0.00838315,0.00938936,0.0
 0088983,-0.00262952,-0.00069486,-0.00028273,-0.00061312,-0.00023792,-0
 .00003425,0.00053146,0.00010004,-0.00012404,-0.00003076,0.00006335,-0.
 00074123,0.00145588,-0.00014159,-0.00002753,-0.00079764,0.00098563,0.0
 4205970,-0.14435706,0.16334174,-0.00376956,0.00040100,-0.00180938,-0.0
 0164743,-0.00077205,0.00258416,-0.00001785,0.00203190,0.00074913,0.001
 81744,0.00148139,0.01260660,-0.05660654,-0.01444810,-0.05086413,0.0024
 6722,0.00605965,0.01056956,-0.00384001,-0.00824775,-0.02619439,-0.0010
 1960,0.00161157,-0.00098866,-0.00022398,-0.00068267,-0.00094421,0.0007
 7828,0.00042779,0.00055388,-0.00009104,0.00007601,0.00074119,0.0000587
 6,-0.00044851,-0.00055666,0.06061539,-0.00023064,0.00003988,0.00224952
 ,-0.00053878,-0.00310297,0.00389592,0.00228773,-0.00553343,-0.00253386
 ,-0.00778713,-0.00242160,-0.02622122,-0.01363138,-0.06856992,-0.065941
 31,0.00626476,0.00792897,0.01620529,-0.00007221,-0.00038954,0.00027725
 ,-0.00039310,-0.00019101,-0.00020881,0.00008729,0.00012242,0.00025909,
 0.00042759,0.00114473,0.00082090,0.00085828,0.00052774,-0.00145624,-0.
 00023662,0.00077947,0.00103695,0.01256484,0.06838934,0.00026104,0.0002
 7026,-0.00031723,0.00133363,0.00185846,-0.00367486,-0.00040923,-0.0005
 1068,-0.00057563,-0.00020351,0.00048516,-0.00287141,-0.04991861,-0.066
 83156,-0.28892662,-0.00478236,-0.00728428,-0.01218564,0.00064520,-0.00
 049829,-0.00172195,-0.00013419,0.00024484,-0.00007415,-0.00010677,-0.0
 0017833,-0.00008930,-0.00055417,-0.00082177,-0.00075069,0.00000777,0.0
 0000639,-0.00014099,0.00030295,-0.00058305,0.00018533,0.05385465,0.073
 15646,0.31011845,-0.00170027,-0.00166569,0.00223305,-0.00739985,0.0016
 5557,0.00216586,0.00151793,0.00116628,-0.00091392,0.00151804,0.0011666
 3,0.00091326,-0.00739856,0.00165468,-0.00216600,-0.30665063,-0.0136350
 4,0.00001154,-0.00170022,-0.00166639,-0.00223226,-0.00153490,-0.000384
 63,0.00000008,-0.00019787,0.00002518,-0.00011789,0.00008618,-0.0001966
 8,-0.00052597,-0.00005861,-0.00022345,0.00003902,-0.00005863,-0.000223
 47,-0.00003891,0.00008619,-0.00019650,0.00052607,0.33398274,-0.0019924
 7,-0.00081765,-0.00017980,-0.01240303,-0.00195660,0.00223912,-0.001369
 96,0.00062498,-0.00064601,-0.00136956,0.00062488,0.00064556,-0.0123932
 9,-0.00195703,-0.00223661,-0.00806952,-0.05260409,0.00000148,-0.001991
 21,-0.00081558,0.00017986,-0.00188798,0.00037488,-0.00000041,-0.000494
 32,-0.00019429,-0.00019732,0.00036782,0.00036988,-0.00000422,0.0001522
 0,0.00001578,-0.00005165,0.00015211,0.00001582,0.00005167,0.00036763,0
 .00036954,0.00000410,0.01416954,0.05322885,-0.00276248,-0.00443441,-0.
 00096718,-0.02204749,-0.00129724,0.00183449,-0.00083145,0.00086244,-0.
 00060351,0.00083194,-0.00086306,-0.00060353,0.02205366,0.00129885,0.00
 183361,0.00001029,0.00000166,-0.04721927,0.00276342,0.00443446,-0.0009
 6929,0.00000042,-0.00000047,-0.00174047,-0.00004011,0.00009898,0.00019
 969,0.00042347,0.00076905,0.00015367,0.00019959,-0.00003143,0.00006324
 ,-0.00019965,0.00003147,0.00006322,-0.00042363,-0.00076914,0.00015401,
 -0.00001257,-0.00000196,0.04663349,0.00030201,-0.00135289,-0.00008861,
 0.00173190,-0.00853381,0.00118969,0.00070811,-0.00095875,-0.00173779,0
 .00070838,-0.00095782,0.00173800,0.00173126,-0.00853288,-0.00118589,-0
 .09686765,0.09846382,-0.00002047,0.00030191,-0.00135284,0.00008916,0.0
 0032348,0.00036790,-0.00000008,-0.00007791,-0.00012040,-0.00007736,0.0
 0030880,0.00053290,0.00033191,0.00013151,-0.00045253,0.00023921,0.0001
 3148,-0.00045257,-0.00023897,0.00030874,0.00053270,-0.00033214,-0.0100
 7615,0.02746051,-0.00000584,0.10023169,0.00088605,0.00064002,-0.001570
 84,0.00615904,-0.01169846,0.00245293,0.00014254,-0.00312851,-0.0012342
 9,0.00014374,-0.00312697,0.00123446,0.00615501,-0.01168947,-0.00244748
 ,0.09286190,-0.26107480,0.00004538,0.00088545,0.00064078,0.00157028,-0
 .00016805,0.00088614,-0.00000006,-0.00057264,-0.00014776,-0.00024834,-
 0.00007663,0.00047871,-0.00038824,-0.00052499,-0.00082830,0.00044129,-
 0.00052513,-0.00082803,-0.00044060,-0.00007691,0.00047852,0.00038824,-
 0.00071229,0.00314995,-0.00000069,-0.10429168,0.28594632,0.00157624,-0
 .00013046,-0.00047384,0.00863942,-0.02244801,0.00135542,-0.00249051,-0
 .00221767,-0.00273410,0.00249023,0.00221790,-0.00273593,-0.00864223,0.
 02245442,0.00134709,-0.00001922,0.00004520,-0.04585824,-0.00157668,0.0
 0013005,-0.00047450,0.00000005,-0.00000008,0.00057210,-0.00034142,0.00
 006976,-0.00002760,0.00066805,0.00081145,0.00045785,0.00025120,-0.0010
 3067,0.00063587,-0.00025093,0.00103135,0.00063564,-0.00066800,-0.00081
 150,0.00045811,0.00000049,-0.00000160,-0.00000898,0.00002172,-0.000050
 32,0.04706188,-0.00197004,-0.00043839,-0.00276985,-0.00201212,-0.00012
 331,0.00032909,-0.00000408,0.00041330,0.00112274,-0.00303665,-0.002104
 69,-0.00125667,-0.01100981,0.01660541,0.01315536,0.00025637,0.00072078
 ,0.00015208,-0.13898418,0.10912966,0.08546716,0.00882161,-0.01196897,-
 0.00909947,0.00094308,0.00005145,-0.00040937,-0.00022391,0.00008732,0.
 00010674,0.00053841,0.00019055,0.00012392,-0.00023627,0.00038744,0.000
 20567,0.00116107,-0.00006280,-0.00052401,-0.00019786,-0.00049430,0.000
 04035,-0.00007788,-0.00057247,0.00034168,0.14572124,-0.01027372,0.0076
 6262,0.00418608,-0.00091096,0.00077665,0.00261682,-0.00012836,-0.00048
 700,0.00064473,0.00066417,0.00002523,0.00015928,-0.00064802,-0.0010593
 1,-0.00009305,0.00039925,0.00044015,0.00013880,0.10827038,-0.15872776,
 -0.10324833,0.01502442,-0.01480449,-0.01103371,0.00005151,-0.00009138,
 -0.00185825,-0.00068224,0.00012238,0.00017827,-0.00002088,0.00012482,0
 .00003074,-0.00001589,-0.00010611,-0.00007096,0.00011541,0.00041431,0.
 00030963,0.00002523,-0.00019424,-0.00009881,-0.00012037,-0.00014768,-0
 .00006970,-0.11108544,0.16576584,0.01312190,-0.01980994,-0.01096356,-0
 .00066025,-0.00105671,-0.00316779,-0.00045646,0.00152934,0.00014748,-0
 .00230105,-0.00060071,-0.00001417,-0.00691558,0.00841008,0.00597591,0.
 00004870,-0.00042410,-0.00060323,0.08235418,-0.10050643,-0.11646601,-0
 .00176851,-0.00032123,-0.00507389,0.00040946,0.00185946,0.00263322,0.0
 0094452,-0.00025919,-0.00008933,0.00014754,-0.00005629,0.00006335,-0.0
 0010638,0.00023340,0.00012764,0.00110653,0.00022790,0.00040932,0.00011
 790,0.00019753,0.00019963,0.00007742,0.00024844,-0.00002771,-0.0859313
 2,0.10996536,0.12606941,0.00517367,-0.00967952,-0.00251981,-0.00094141
 ,0.00109659,0.00018783,-0.00262071,-0.00177913,0.00221800,-0.00262091,
 -0.00178013,-0.00221703,-0.00094128,0.00109664,-0.00018824,0.00022700,
 0.00036547,-0.00000007,0.00517470,-0.00967973,0.00252371,-0.09566065,0
 .10890965,-0.00002254,-0.00074966,-0.00077912,-0.00002300,0.00006647,0
 .00019433,-0.00005854,-0.00016564,0.00016293,-0.00010302,-0.00016566,0
 .00016299,0.00010296,0.00006649,0.00019435,0.00005845,-0.00012817,0.00
 011930,-0.00000003,0.00011703,0.00025636,-0.00000007,-0.00074982,-0.00
 077937,0.00002343,0.10202529,0.00198479,-0.01342570,-0.00049334,0.0022
 7284,-0.00006609,0.00094862,0.00121006,0.00134498,0.00001142,0.0012097
 4,0.00134507,-0.00001205,0.00227393,-0.00006562,-0.00094856,0.00026005
 ,-0.00019736,0.00000015,0.00199076,-0.01343501,0.00049845,0.10677809,-
 0.28307057,0.00005208,-0.00080090,-0.00122998,-0.00144107,-0.00027387,
 -0.00000536,-0.00000119,-0.00014997,0.00009949,0.00011153,-0.00015018,
 0.00009950,-0.00011154,-0.00027376,-0.00000538,0.00000123,-0.00027968,
 0.00016735,-0.00000005,-0.00021858,0.00031707,-0.00000010,-0.00080193,
 -0.00123115,0.00144192,-0.11401138,0.30539867,-0.01327691,0.02116312,-
 0.00173648,-0.00256485,-0.00201481,0.00040308,0.00072749,-0.00020960,0
 .00010777,-0.00072786,0.00020915,0.00010787,0.00256392,0.00201495,0.00
 040244,-0.00000005,0.00000015,0.00053362,0.01327556,-0.02115726,-0.001
 72823,-0.00002206,0.00005201,-0.03586559,0.00252257,0.00407267,0.00052
 733,-0.00023678,0.00004047,0.00004254,0.00043657,-0.00015074,0.0000600
 3,-0.00043648,0.00015071,0.00006003,0.00023689,-0.00004047,0.00004254,
 0.00000006,-0.00000006,-0.00008191,0.00000004,-0.00000011,-0.00015400,
 -0.00252212,-0.00407184,0.00052868,0.00002353,-0.00005654,0.03725853,-
 0.00699083,0.00056337,-0.00093077,0.00096453,-0.00060905,-0.00087064,-
 0.00006632,-0.00046294,-0.00007845,-0.00006627,-0.00046295,0.00007864,
 0.00096451,-0.00060894,0.00087088,-0.00170425,-0.00024312,0.00000007,-
 0.00699242,0.00056408,0.00093094,-0.33168170,0.00911281,0.00000734,0.0
 0106076,0.00011484,0.00021194,-0.00014354,-0.00006838,0.00002482,0.000
 01735,0.00003405,0.00001473,0.00001735,0.00003404,-0.00001474,-0.00014
 358,-0.00006840,-0.00002478,-0.00008936,-0.00032348,0.00000011,0.00006
 329,0.00003069,0.,0.00106084,0.00011490,-0.00021204,-0.00810674,-0.001
 02001,0.00000047,0.35183638,-0.01683713,-0.00193020,0.00021478,0.00112
 359,-0.00288018,-0.00131458,0.00135453,0.00055800,0.00068487,0.0013547
 5,0.00055738,-0.00068533,0.00112304,-0.00288158,0.00131599,-0.00209922
 ,-0.00000391,-0.00000022,-0.01684847,-0.00192814,-0.00021289,0.0128966
 5,-0.05000843,0.00000261,0.00006577,0.00151658,0.00107825,-0.00018718,
 0.00001901,0.00001679,-0.00018074,0.00006568,0.00004963,-0.00018076,0.
 00006568,-0.00004962,-0.00018743,0.00001893,-0.00001681,-0.00067929,-0
 .00040243,0.00000035,-0.00001272,0.00013247,-0.00000004,0.00006637,0.0
 0151713,-0.00107882,0.02592977,0.00396011,-0.00000183,-0.00670154,0.05
 162391,0.02515235,-0.00481274,-0.00009541,0.00143300,0.00442427,0.0004
 2997,-0.00058363,0.00067932,-0.00028196,0.00058301,-0.00067967,-0.0002
 8139,-0.00143353,-0.00442274,0.00043140,0.00000049,-0.00000028,-0.0012
 8888,-0.02514437,0.00481352,-0.00009593,0.00000649,0.00000274,-0.03654
 898,-0.00146809,-0.00231552,0.00025169,0.00055363,0.00014671,-0.000039
 37,0.00001806,-0.00006687,0.00007005,-0.00001798,0.00006687,0.00007004
 ,-0.00055354,-0.00014673,-0.00003926,0.00000019,0.00000034,0.00105908,
 0.,-0.00000004,-0.00002906,0.00146801,0.00231494,0.00025106,-0.0000055
 8,-0.00000097,-0.00050822,-0.00000851,-0.00000315,0.03664518\\0.000085
 07,0.00001774,-0.00004524,-0.00005418,-0.00001671,0.00002048,0.0000051
 2,-0.00003724,0.00000329,0.00000514,-0.00003756,-0.00000308,-0.0000546
 9,-0.00001678,-0.00002073,-0.00003349,0.00001817,-0.00000012,0.0000862
 3,0.00001788,0.00004573,-0.00007973,0.00005580,0.00000002,-0.00001830,
 -0.00000359,0.00000972,0.00000082,0.00000498,-0.00000260,0.00001531,0.
 00001061,-0.00000302,0.00001530,0.00001060,0.00000293,0.00000088,0.000
 00496,0.00000265,0.00000230,0.00001206,0.00000001,0.00001157,0.0000235
 6,0.00000002,-0.00001865,-0.00000368,-0.00001008,0.00002212,-0.0000099
 7,0.,0.00000916,-0.00005083,0.\\\@
 The archive entry for this job was punched.


 The theorems and results in mathematical physics are
 not theorems and results about Nature, but about our
 description of it.
                   --Gerard 't Hooft
 Job cpu time:       0 days  0 hours 51 minutes 54.6 seconds.
 Elapsed time:       0 days  0 hours  3 minutes 17.8 seconds.
 File lengths (MBytes):  RWF=    142 Int=      0 D2E=      0 Chk=      9 Scr=      1
 Normal termination of Gaussian 16 at Tue Sep  6 23:03:20 2022.
