nohup: ignoring input

                                 *****************
                                 * O   R   C   A *
                                 *****************

                                            #,                                       
                                            ###                                      
                                            ####                                     
                                            #####                                    
                                            ######                                   
                                           ########,                                 
                                     ,,################,,,,,                         
                               ,,#################################,,                 
                          ,,##########################################,,             
                       ,#########################################, ''#####,          
                    ,#############################################,,   '####,        
                  ,##################################################,,,,####,       
                ,###########''''           ''''###############################       
              ,#####''   ,,,,##########,,,,          '''####'''          '####       
            ,##' ,,,,###########################,,,                        '##       
           ' ,,###''''                  '''############,,,                           
         ,,##''                                '''############,,,,        ,,,,,,###''
      ,#''                                            '''#######################'''  
     '                                                          ''''####''''         
             ,#######,   #######,   ,#######,      ##                                
            ,#'     '#,  ##    ##  ,#'     '#,    #''#        ######   ,####,        
            ##       ##  ##   ,#'  ##            #'  '#       #        #'  '#        
            ##       ##  #######   ##           ,######,      #####,   #    #        
            '#,     ,#'  ##    ##  '#,     ,#' ,#      #,         ##   #,  ,#        
             '#######'   ##     ##  '#######'  #'      '#     #####' # '####'        



                  #######################################################
                  #                        -***-                        #
                  #          Department of theory and spectroscopy      #
                  #    Directorship and core code : Frank Neese         #
                  #        Max Planck Institute fuer Kohlenforschung    #
                  #                Kaiser Wilhelm Platz 1               #
                  #                 D-45470 Muelheim/Ruhr               #
                  #                      Germany                        #
                  #                                                     #
                  #                  All rights reserved                #
                  #                        -***-                        #
                  #######################################################


                         Program Version 5.0.2 -  RELEASE  -


 With contributions from (in alphabetic order):
   Daniel Aravena         : Magnetic Suceptibility
   Michael Atanasov       : Ab Initio Ligand Field Theory (pilot matlab implementation)
   Alexander A. Auer      : GIAO ZORA, VPT2 properties, NMR spectrum
   Ute Becker             : Parallelization
   Giovanni Bistoni       : ED, misc. LED, open-shell LED, HFLD
   Martin Brehm           : Molecular dynamics
   Dmytro Bykov           : SCF Hessian
   Vijay G. Chilkuri      : MRCI spin determinant printing, contributions to CSF-ICE
   Dipayan Datta          : RHF DLPNO-CCSD density
   Achintya Kumar Dutta   : EOM-CC, STEOM-CC
   Dmitry Ganyushin       : Spin-Orbit,Spin-Spin,Magnetic field MRCI
   Miquel Garcia          : C-PCM and meta-GGA Hessian, CC/C-PCM, Gaussian charge scheme
   Yang Guo               : DLPNO-NEVPT2, F12-NEVPT2, CIM, IAO-localization
   Andreas Hansen         : Spin unrestricted coupled pair/coupled cluster methods
   Benjamin Helmich-Paris : MC-RPA, TRAH-SCF, COSX integrals
   Lee Huntington         : MR-EOM, pCC
   Robert Izsak           : Overlap fitted RIJCOSX, COSX-SCS-MP3, EOM
   Marcus Kettner         : VPT2
   Christian Kollmar      : KDIIS, OOCD, Brueckner-CCSD(T), CCSD density, CASPT2, CASPT2-K
   Simone Kossmann        : Meta GGA functionals, TD-DFT gradient, OOMP2, MP2 Hessian
   Martin Krupicka        : Initial AUTO-CI
   Lucas Lang             : DCDCAS
   Marvin Lechner         : AUTO-CI (C++ implementation), FIC-MRCC
   Dagmar Lenk            : GEPOL surface, SMD
   Dimitrios Liakos       : Extrapolation schemes; Compound Job, initial MDCI parallelization
   Dimitrios Manganas     : Further ROCIS development; embedding schemes
   Dimitrios Pantazis     : SARC Basis sets
   Anastasios Papadopoulos: AUTO-CI, single reference methods and gradients
   Taras Petrenko         : DFT Hessian,TD-DFT gradient, ASA, ECA, R-Raman, ABS, FL, XAS/XES, NRVS
   Peter Pinski           : DLPNO-MP2, DLPNO-MP2 Gradient
   Christoph Reimann      : Effective Core Potentials
   Marius Retegan         : Local ZFS, SOC
   Christoph Riplinger    : Optimizer, TS searches, QM/MM, DLPNO-CCSD(T), (RO)-DLPNO pert. Triples
   Tobias Risthaus        : Range-separated hybrids, TD-DFT gradient, RPA, STAB
   Michael Roemelt        : Original ROCIS implementation
   Masaaki Saitow         : Open-shell DLPNO-CCSD energy and density
   Barbara Sandhoefer     : DKH picture change effects
   Avijit Sen             : IP-ROCIS
   Kantharuban Sivalingam : CASSCF convergence, NEVPT2, FIC-MRCI
   Bernardo de Souza      : ESD, SOC TD-DFT
   Georgi Stoychev        : AutoAux, RI-MP2 NMR, DLPNO-MP2 response
   Willem Van den Heuvel  : Paramagnetic NMR
   Boris Wezisla          : Elementary symmetry handling
   Frank Wennmohs         : Technical directorship


 We gratefully acknowledge several colleagues who have allowed us to
 interface, adapt or use parts of their codes:
   Stefan Grimme, W. Hujo, H. Kruse, P. Pracht,  : VdW corrections, initial TS optimization,
                  C. Bannwarth, S. Ehlert          DFT functionals, gCP, sTDA/sTD-DF
   Ed Valeev, F. Pavosevic, A. Kumar             : LibInt (2-el integral package), F12 methods
   Garnet Chan, S. Sharma, J. Yang, R. Olivares  : DMRG
   Ulf Ekstrom                                   : XCFun DFT Library
   Mihaly Kallay                                 : mrcc  (arbitrary order and MRCC methods)
   Jiri Pittner, Ondrej Demel                    : Mk-CCSD
   Frank Weinhold                                : gennbo (NPA and NBO analysis)
   Christopher J. Cramer and Donald G. Truhlar   : smd solvation model
   Lars Goerigk                                  : TD-DFT with DH, B97 family of functionals
   V. Asgeirsson, H. Jonsson                     : NEB implementation
   FAccTs GmbH                                   : IRC, NEB, NEB-TS, DLPNO-Multilevel, CI-OPT
                                                   MM, QMMM, 2- and 3-layer-ONIOM, Crystal-QMMM,
                                                   LR-CPCM, SF, NACMEs, symmetry and pop. for TD-DFT,
                                                   nearIR, NL-DFT gradient (VV10), updates on ESD,
                                                   ML-optimized integration grids
   S Lehtola, MJT Oliveira, MAL Marques          : LibXC Library
   Liviu Ungur et al                             : ANISO software


 Your calculation uses the libint2 library for the computation of 2-el integrals
 For citations please refer to: http://libint.valeyev.net

 Your ORCA version has been built with support for libXC version: 5.1.0
 For citations please refer to: https://tddft.org/programs/libxc/

 This ORCA versions uses:
   CBLAS   interface :  Fast vector & matrix operations
   LAPACKE interface :  Fast linear algebra routines
   SCALAPACK package :  Parallel linear algebra routines
   Shared memory     :  Shared parallel matrices
   BLAS/LAPACK       :  OpenBLAS 0.3.15  USE64BITINT DYNAMIC_ARCH NO_AFFINITY SkylakeX SINGLE_THREADED
        Core in use  :  SkylakeX
   Copyright (c) 2011-2014, The OpenBLAS Project


================================================================================

----- Orbital basis set information -----
Your calculation utilizes the basis: def2-TZVPP
   F. Weigend and R. Ahlrichs, Phys. Chem. Chem. Phys. 7, 3297 (2005).

----- AuxC basis set information -----
Your calculation utilizes the auxiliary basis: def2-TZVPP/C
  H-La, Hf-Rn : A. Hellweg, C. Hattig, S. Hofener and W. Klopper, Theor. Chem. Acc. 117, 587 (2007).
        Ce-Lu : J. Chmela and M. E. Harding, Mol. Phys. (2018).

================================================================================
                                        WARNINGS
                       Please study these warnings very carefully!
================================================================================


WARNING: Post HF methods need fully converged wavefunctions
  ===> : Setting SCFConvForced true
         You can overwrite this default with %scf ConvForced false 


WARNING: MDCI localization with Augmented Hessian Foster-Boys
  ===> : Switching off randomization!

INFO   : the flag for use of the SHARK integral package has been found!

================================================================================
                                       INPUT FILE
================================================================================
NAME = P1_crest_conf_1_DLPNO.inp
|  1> # P1_crest_conf_1_DLPNO
|  2> %maxcore 16000
|  3> %pal nprocs 8 end
|  4> ! DLPNO-CCSD(T) def2-tzvpp def2-tzvpp/C
|  5> %scf maxiter 500
|  6> end
|  7> % mdci
|  8> Density None
|  9> end
| 10> % elprop
| 11> Dipole False
| 12> end
| 13> * xyz 0 1
| 14>  C   1.05770200  -0.39285900   0.75538900
| 15>  C  -0.46280900  -0.31234800   1.12292200
| 16>  C  -1.01979000   1.02401100   0.66732800
| 17>  C  -1.01979100   1.02400700  -0.66733100
| 18>  C  -0.46281000  -0.31235300  -1.12292000
| 19>  C  -1.03426000  -1.22112400   0.00000300
| 20>  C   1.05770300  -0.39286200  -0.75538800
| 21>  C   1.74162900   0.71259600  -0.00000200
| 22>  H   1.66011600  -1.09037000   1.32226400
| 23>  H  -0.67601400  -0.59398700   2.15186900
| 24>  H  -1.26426200   1.85085600   1.32004100
| 25>  H  -1.26426500   1.85084900  -1.32004800
| 26>  H  -0.67601500  -0.59399600  -2.15186600
| 27>  H  -2.12403200  -1.28239500   0.00000400
| 28>  H  -0.60013700  -2.22319000   0.00000500
| 29>  H   1.66011200  -1.09037600  -1.32226400
| 30>  H   1.31431300   1.70582600  -0.00000400
| 31>  H   2.82474300   0.69237400  -0.00000200
| 32> **                         ****END OF INPUT****
================================================================================

                       ****************************
                       * Single Point Calculation *
                       ****************************

---------------------------------
CARTESIAN COORDINATES (ANGSTROEM)
---------------------------------
  C      1.057702   -0.392859    0.755389
  C     -0.462809   -0.312348    1.122922
  C     -1.019790    1.024011    0.667328
  C     -1.019791    1.024007   -0.667331
  C     -0.462810   -0.312353   -1.122920
  C     -1.034260   -1.221124    0.000003
  C      1.057703   -0.392862   -0.755388
  C      1.741629    0.712596   -0.000002
  H      1.660116   -1.090370    1.322264
  H     -0.676014   -0.593987    2.151869
  H     -1.264262    1.850856    1.320041
  H     -1.264265    1.850849   -1.320048
  H     -0.676015   -0.593996   -2.151866
  H     -2.124032   -1.282395    0.000004
  H     -0.600137   -2.223190    0.000005
  H      1.660112   -1.090376   -1.322264
  H      1.314313    1.705826   -0.000004
  H      2.824743    0.692374   -0.000002

----------------------------
CARTESIAN COORDINATES (A.U.)
----------------------------
  NO LB      ZA    FRAG     MASS         X           Y           Z
   0 C     6.0000    0    12.011    1.998767   -0.742396    1.427478
   1 C     6.0000    0    12.011   -0.874582   -0.590252    2.122015
   2 C     6.0000    0    12.011   -1.927124    1.935100    1.261067
   3 C     6.0000    0    12.011   -1.927126    1.935093   -1.261073
   4 C     6.0000    0    12.011   -0.874584   -0.590262   -2.122011
   5 C     6.0000    0    12.011   -1.954468   -2.307590    0.000006
   6 C     6.0000    0    12.011    1.998769   -0.742402   -1.427476
   7 C     6.0000    0    12.011    3.291202    1.346611   -0.000004
   8 H     1.0000    0     1.008    3.137165   -2.060501    2.498717
   9 H     1.0000    0     1.008   -1.277481   -1.122473    4.066443
  10 H     1.0000    0     1.008   -2.389109    3.497611    2.494516
  11 H     1.0000    0     1.008   -2.389115    3.497598   -2.494529
  12 H     1.0000    0     1.008   -1.277483   -1.122490   -4.066437
  13 H     1.0000    0     1.008   -4.013839   -2.423375    0.000008
  14 H     1.0000    0     1.008   -1.134095   -4.201220    0.000009
  15 H     1.0000    0     1.008    3.137157   -2.060512   -2.498717
  16 H     1.0000    0     1.008    2.483692    3.223544   -0.000008
  17 H     1.0000    0     1.008    5.337991    1.308397   -0.000004

--------------------------------
INTERNAL COORDINATES (ANGSTROEM)
--------------------------------
 C      0   0   0     0.000000000000     0.00000000     0.00000000
 C      1   0   0     1.566370399468     0.00000000     0.00000000
 C      2   1   0     1.517777685986   109.33258403     0.00000000
 C      3   2   1     1.334659000006   107.46777776    68.21762384
 C      4   3   2     1.517777065607   107.46787123     0.00000000
 C      5   4   3     1.553504392292    99.38682595    34.90717923
 C      1   2   3     1.510777000003   103.57044119   294.32593321
 C      7   1   2     1.503462727252    59.83897119   118.71339834
 H      1   2   3     1.082021944390   116.78563298   157.80861567
 H      2   1   3     1.087891918876   113.50705614   228.62314693
 H      3   2   1     1.081421968141   125.09856400   254.21465659
 H      4   3   2     1.081422540790   127.12604359   186.15444682
 H      5   4   3     1.087892008607   116.09938594   161.79961088
 H      6   5   4     1.091493081712   113.58470139    64.99342556
 H      6   5   4     1.092061833180   112.98851273   191.47700696
 H      7   1   2     1.082021618478   121.59463518   226.15344000
 H      8   7   1     1.081251495611   119.71184236   250.63319703
 H      8   7   1     1.083302758364   116.17382538   106.59529616

---------------------------
INTERNAL COORDINATES (A.U.)
---------------------------
 C      0   0   0     0.000000000000     0.00000000     0.00000000
 C      1   0   0     2.960011079276     0.00000000     0.00000000
 C      2   1   0     2.868184158691   109.33258403     0.00000000
 C      3   2   1     2.522139992185   107.46777776    68.21762384
 C      4   3   2     2.868182986343   107.46787123     0.00000000
 C      5   4   3     2.935697849275    99.38682595    34.90717923
 C      1   2   3     2.854954779433   103.57044119   294.32593321
 C      7   1   2     2.841132807065    59.83897119   118.71339834
 H      1   2   3     2.044725145790   116.78563298   157.80861567
 H      2   1   3     2.055817789981   113.50705614   228.62314693
 H      3   2   1     2.043591354993   125.09856400   254.21465659
 H      4   3   2     2.043592437143   127.12604359   186.15444682
 H      5   4   3     2.055817959548   116.09938594   161.79961088
 H      6   5   4     2.062623001506   113.58470139    64.99342556
 H      6   5   4     2.063697786019   112.98851273   191.47700696
 H      7   1   2     2.044724529905   121.59463518   226.15344000
 H      8   7   1     2.043269208597   119.71184236   250.63319703
 H      8   7   1     2.047145533430   116.17382538   106.59529616

---------------------
BASIS SET INFORMATION
---------------------
There are 2 groups of distinct atoms

 Group   1 Type C   : 11s6p2d1f contracted to 5s3p2d1f pattern {62111/411/11/1}
 Group   2 Type H   : 5s2p1d contracted to 3s2p1d pattern {311/11/1}

Atom   0C    basis set group =>   1
Atom   1C    basis set group =>   1
Atom   2C    basis set group =>   1
Atom   3C    basis set group =>   1
Atom   4C    basis set group =>   1
Atom   5C    basis set group =>   1
Atom   6C    basis set group =>   1
Atom   7C    basis set group =>   1
Atom   8H    basis set group =>   2
Atom   9H    basis set group =>   2
Atom  10H    basis set group =>   2
Atom  11H    basis set group =>   2
Atom  12H    basis set group =>   2
Atom  13H    basis set group =>   2
Atom  14H    basis set group =>   2
Atom  15H    basis set group =>   2
Atom  16H    basis set group =>   2
Atom  17H    basis set group =>   2
---------------------------------
AUXILIARY/C BASIS SET INFORMATION
---------------------------------
There are 2 groups of distinct atoms

 Group   1 Type C   : 8s6p5d3f1g contracted to 8s6p4d3f1g pattern {11111111/111111/2111/111/1}
 Group   2 Type H   : 4s3p2d1f contracted to 4s3p2d1f pattern {1111/111/11/1}

Atom   0C    basis set group =>   1
Atom   1C    basis set group =>   1
Atom   2C    basis set group =>   1
Atom   3C    basis set group =>   1
Atom   4C    basis set group =>   1
Atom   5C    basis set group =>   1
Atom   6C    basis set group =>   1
Atom   7C    basis set group =>   1
Atom   8H    basis set group =>   2
Atom   9H    basis set group =>   2
Atom  10H    basis set group =>   2
Atom  11H    basis set group =>   2
Atom  12H    basis set group =>   2
Atom  13H    basis set group =>   2
Atom  14H    basis set group =>   2
Atom  15H    basis set group =>   2
Atom  16H    basis set group =>   2
Atom  17H    basis set group =>   2


           ************************************************************
           *        Program running with 8 parallel MPI-processes     *
           *              working on a common directory               *
           ************************************************************
------------------------------------------------------------------------------
                           ORCA GTO INTEGRAL CALCULATION
------------------------------------------------------------------------------
------------------------------------------------------------------------------
                   ___                                                        
                  /   \      - P O W E R E D   B Y -                         
                 /     \                                                     
                 |  |  |   _    _      __       _____    __    __             
                 |  |  |  | |  | |    /  \     |  _  \  |  |  /  |          
                  \  \/   | |  | |   /    \    | | | |  |  | /  /          
                 / \  \   | |__| |  /  /\  \   | |_| |  |  |/  /          
                |  |  |   |  __  | /  /__\  \  |    /   |      \           
                |  |  |   | |  | | |   __   |  |    \   |  |\   \          
                \     /   | |  | | |  |  |  |  | |\  \  |  | \   \       
                 \___/    |_|  |_| |__|  |__|  |_| \__\ |__|  \__/        
                                                                              
                      - O R C A' S   B I G   F R I E N D -                    
                                      &                                       
                       - I N T E G R A L  F E E D E R -                       
                                                                              
 v1 FN, 2020, v2 2021                                                         
------------------------------------------------------------------------------


Reading SHARK input file P1_crest_conf_1_DLPNO.SHARKINP.tmp ... ok
----------------------
SHARK INTEGRAL PACKAGE
----------------------

Number of atoms                             ...     18
Number of basis functions                   ...    388
Number of shells                            ...    148
Maximum angular momentum                    ...      3
Integral batch strategy                     ... SHARK/LIBINT Hybrid
RI-J (if used) integral strategy            ... SPLIT-RIJ (Revised 2003 algorithm where possible)
Printlevel                                  ...      1
Contraction scheme used                     ... SEGMENTED contraction
Coulomb Range Separation                    ... NOT USED
Exchange Range Separation                   ... NOT USED
Finite Nucleus Model                        ... NOT USED
Auxiliary Coulomb fitting basis             ... NOT available
Auxiliary J/K fitting basis                 ... NOT available
Auxiliary Correlation fitting basis         ... AVAILABLE
   # of basis functions in Aux-C            ...    908
   # of shells in Aux-C                     ...    276
   Maximum angular momentum in Aux-C        ...      4
Auxiliary 'external' fitting basis          ... NOT available
Integral threshold                          ...     1.000000e-10
Primitive cut-off                           ...     1.000000e-11
Primitive pair pre-selection threshold      ...     1.000000e-11

Calculating pre-screening integrals         ... done (  0.0 sec) Dimension = 148
Organizing shell pair data                  ... done (  0.1 sec)
Shell pair information
Total number of shell pairs                 ...     11026
Shell pairs after pre-screening             ...     10434
Total number of primitive shell pairs       ...     29126
Primitive shell pairs kept                  ...     21984
          la=0 lb=0:   2289 shell pairs
          la=1 lb=0:   2932 shell pairs
          la=1 lb=1:    959 shell pairs
          la=2 lb=0:   1682 shell pairs
          la=2 lb=1:   1090 shell pairs
          la=2 lb=2:    330 shell pairs
          la=3 lb=0:    558 shell pairs
          la=3 lb=1:    350 shell pairs
          la=3 lb=2:    208 shell pairs
          la=3 lb=3:     36 shell pairs

Calculating one electron integrals          ... done (  0.0 sec)
Calculating RI/C V-Matrix + Cholesky decomp.... done (  0.0 sec)
Calculating Nuclear repulsion               ... done (  0.0 sec) ENN=    375.386369692316 Eh

SHARK setup successfully completed in   0.3 seconds

Maximum memory used throughout the entire GTOINT-calculation: 23.3 MB


           ************************************************************
           *        Program running with 8 parallel MPI-processes     *
           *              working on a common directory               *
           ************************************************************
-------------------------------------------------------------------------------
                                 ORCA SCF
-------------------------------------------------------------------------------

------------
SCF SETTINGS
------------
Hamiltonian:
 Ab initio Hamiltonian  Method          .... Hartree-Fock(GTOs)


General Settings:
 Integral files         IntName         .... P1_crest_conf_1_DLPNO
 Hartree-Fock type      HFTyp           .... RHF
 Total Charge           Charge          ....    0
 Multiplicity           Mult            ....    1
 Number of Electrons    NEL             ....   58
 Basis Dimension        Dim             ....  388
 Nuclear Repulsion      ENuc            ....    375.3863696923 Eh

Convergence Acceleration:
 DIIS                   CNVDIIS         .... on
   Start iteration      DIISMaxIt       ....    12
   Startup error        DIISStart       ....  0.200000
   # of expansion vecs  DIISMaxEq       ....     5
   Bias factor          DIISBfac        ....   1.050
   Max. coefficient     DIISMaxC        ....  10.000
 Trust-Rad. Augm. Hess. CNVTRAH         .... auto
   Auto Start mean grad. ratio tolernc. ....  1.125000
   Auto Start start iteration           ....    20
   Auto Start num. interpolation iter.  ....    10
   Max. Number of Micro iterations      ....    16
   Max. Number of Macro iterations      .... Maxiter - #DIIS iter
   Number of Davidson start vectors     ....     2
   Converg. threshold I  (grad. norm)   ....   5.000e-05
   Converg. threshold II (energy diff.) ....   1.000e-06
   Grad. Scal. Fac. for Micro threshold ....   0.100
   Minimum threshold for Micro iter.    ....   0.010
   NR start threshold (gradient norm)   ....   0.001
   Initial trust radius                 ....   0.400
   Minimum AH scaling param. (alpha)    ....   1.000
   Maximum AH scaling param. (alpha)    .... 1000.000
   Orbital update algorithm             .... Taylor
   White noise on init. David. guess    .... on
   Maximum white noise                  ....   0.010
   Quad. conv. algorithm                .... NR
 SOSCF                  CNVSOSCF        .... on
   Start iteration      SOSCFMaxIt      ....   150
   Startup grad/error   SOSCFStart      ....  0.003300
 Level Shifting         CNVShift        .... on
   Level shift para.    LevelShift      ....    0.2500
   Turn off err/grad.   ShiftErr        ....    0.0010
 Zerner damping         CNVZerner       .... off
 Static damping         CNVDamp         .... on
   Fraction old density DampFac         ....    0.7000
   Max. Damping (<1)    DampMax         ....    0.9800
   Min. Damping (>=0)   DampMin         ....    0.0000
   Turn off err/grad.   DampErr         ....    0.1000
 Fernandez-Rico         CNVRico         .... off

SCF Procedure:
 Maximum # iterations   MaxIter         ....   500
 SCF integral mode      SCFMode         .... Direct
   Integral package                     .... SHARK and LIBINT hybrid scheme
 Reset frequency        DirectResetFreq ....    20
 Integral Threshold     Thresh          ....  1.000e-10 Eh
 Primitive CutOff       TCut            ....  1.000e-11 Eh

Convergence Tolerance:
 Convergence Check Mode ConvCheckMode   .... Total+1el-Energy
 Convergence forced     ConvForced      .... 1
 Energy Change          TolE            ....  1.000e-06 Eh
 1-El. energy change                    ....  1.000e-03 Eh
 Orbital Gradient       TolG            ....  5.000e-05
 Orbital Rotation angle TolX            ....  5.000e-05
 DIIS Error             TolErr          ....  1.000e-06


Diagonalization of the overlap matrix:
Smallest eigenvalue                        ... 2.373e-05
Time for diagonalization                   ...    0.022 sec
Threshold for overlap eigenvalues          ... 1.000e-08
Number of eigenvalues below threshold      ... 0
Time for construction of square roots      ...    0.010 sec
Total time needed                          ...    0.033 sec

Time for model grid setup =    0.068 sec

------------------------------
INITIAL GUESS: MODEL POTENTIAL
------------------------------
Loading Hartree-Fock densities                     ... done
Calculating cut-offs                               ... done
Initializing the effective Hamiltonian             ... done
Setting up the integral package (SHARK)            ... done
Starting the Coulomb interaction                   ... done (   0.1 sec)
Reading the grid                                   ... done
Mapping shells                                     ... done
Starting the XC term evaluation                    ... done (   0.1 sec)
Transforming the Hamiltonian                       ... done (   0.0 sec)
Diagonalizing the Hamiltonian                      ... done (   0.0 sec)
Back transforming the eigenvectors                 ... done (   0.0 sec)
Now organizing SCF variables                       ... done
                      ------------------
                      INITIAL GUESS DONE (   0.2 sec)
                      ------------------
--------------
SCF ITERATIONS
--------------
ITER       Energy         Delta-E        Max-DP      RMS-DP      [F,P]     Damp
               ***  Starting incremental Fock matrix formation  ***
  0   -308.4130897796   0.000000000000 0.03743045  0.00075632  0.2253033 0.7000
  1   -308.5449204896  -0.131830710012 0.02827436  0.00059871  0.1656859 0.7000
                               ***Turning on DIIS***
  2   -308.6228310655  -0.077910575840 0.01998994  0.00039888  0.1213478 0.7000
  3   -309.6287322425  -1.005901177067 0.04770354  0.00089109  0.0891863 0.0000
  4   -308.7569008798   0.871831362794 0.00929983  0.00021292  0.0060821 0.0000
                      *** Initiating the SOSCF procedure ***
                           *** Shutting down DIIS ***
                      *** Re-Reading the Fockian *** 
                      *** Removing any level shift *** 
ITER      Energy       Delta-E        Grad      Rot      Max-DP    RMS-DP
  5   -308.79174031  -0.0348394335  0.001618  0.001618  0.005459  0.000118
               *** Restarting incremental Fock matrix formation ***
  6   -308.78558556   0.0061547499  0.000663  0.001096  0.003900  0.000080
  7   -308.78561361  -0.0000280476  0.000284  0.000819  0.002308  0.000043
  8   -308.78561845  -0.0000048427  0.000069  0.000062  0.000325  0.000006
  9   -308.78561875  -0.0000003011  0.000021  0.000024  0.000075  0.000002
                 **** Energy Check signals convergence ****
              ***Rediagonalizing the Fockian in SOSCF/NRSCF***

               *****************************************************
               *                     SUCCESS                       *
               *           SCF CONVERGED AFTER  10 CYCLES          *
               *****************************************************


----------------
TOTAL SCF ENERGY
----------------

Total Energy       :         -308.78561878 Eh           -8402.48386 eV

Components:
Nuclear Repulsion  :          375.38636969 Eh           10214.78243 eV
Electronic Energy  :         -684.17198848 Eh          -18617.26629 eV
One Electron Energy:        -1161.04146020 Eh          -31593.54432 eV
Two Electron Energy:          476.86947172 Eh           12976.27803 eV

Virial components:
Potential Energy   :         -617.23889094 Eh          -16795.92411 eV
Kinetic Energy     :          308.45327215 Eh            8393.44025 eV
Virial Ratio       :            2.00107746


---------------
SCF CONVERGENCE
---------------

  Last Energy change         ...   -2.8085e-08  Tolerance :   1.0000e-06
  Last MAX-Density change    ...    1.0030e-05  Tolerance :   1.0000e-05
  Last RMS-Density change    ...    2.8026e-07  Tolerance :   1.0000e-06
  Last Orbital Gradient      ...    4.9795e-06  Tolerance :   5.0000e-05
  Last Orbital Rotation      ...    8.6201e-06  Tolerance :   5.0000e-05

             **** THE GBW FILE WAS UPDATED (P1_crest_conf_1_DLPNO.gbw) ****
             **** DENSITY P1_crest_conf_1_DLPNO.scfp WAS UPDATED ****
             **** ENERGY FILE WAS UPDATED (P1_crest_conf_1_DLPNO.en.tmp) ****
             **** THE GBW FILE WAS UPDATED (P1_crest_conf_1_DLPNO.gbw) ****
             **** DENSITY P1_crest_conf_1_DLPNO.scfp WAS UPDATED ****
----------------
ORBITAL ENERGIES
----------------

  NO   OCC          E(Eh)            E(eV) 
   0   2.0000     -11.231490      -305.6244 
   1   2.0000     -11.231486      -305.6243 
   2   2.0000     -11.221518      -305.3530 
   3   2.0000     -11.220763      -305.3325 
   4   2.0000     -11.218393      -305.2680 
   5   2.0000     -11.217618      -305.2469 
   6   2.0000     -11.216670      -305.2211 
   7   2.0000     -11.216592      -305.2190 
   8   2.0000      -1.197453       -32.5843 
   9   2.0000      -1.082926       -29.4679 
  10   2.0000      -0.967553       -26.3285 
  11   2.0000      -0.960226       -26.1291 
  12   2.0000      -0.823930       -22.4203 
  13   2.0000      -0.777341       -21.1525 
  14   2.0000      -0.759804       -20.6753 
  15   2.0000      -0.702646       -19.1200 
  16   2.0000      -0.693757       -18.8781 
  17   2.0000      -0.650860       -17.7108 
  18   2.0000      -0.623696       -16.9716 
  19   2.0000      -0.561901       -15.2901 
  20   2.0000      -0.531753       -14.4697 
  21   2.0000      -0.522948       -14.2301 
  22   2.0000      -0.498370       -13.5613 
  23   2.0000      -0.468804       -12.7568 
  24   2.0000      -0.468252       -12.7418 
  25   2.0000      -0.458243       -12.4694 
  26   2.0000      -0.404725       -11.0131 
  27   2.0000      -0.382336       -10.4039 
  28   2.0000      -0.339266        -9.2319 
  29   0.0000       0.144928         3.9437 
  30   0.0000       0.147558         4.0153 
  31   0.0000       0.169565         4.6141 
  32   0.0000       0.176090         4.7917 
  33   0.0000       0.181089         4.9277 
  34   0.0000       0.199132         5.4186 
  35   0.0000       0.203640         5.5413 
  36   0.0000       0.207420         5.6442 
  37   0.0000       0.221716         6.0332 
  38   0.0000       0.225596         6.1388 
  39   0.0000       0.244493         6.6530 
  40   0.0000       0.265977         7.2376 
  41   0.0000       0.272202         7.4070 
  42   0.0000       0.273438         7.4406 
  43   0.0000       0.290619         7.9081 
  44   0.0000       0.297795         8.1034 
  45   0.0000       0.306053         8.3281 
  46   0.0000       0.319503         8.6941 
  47   0.0000       0.334330         9.0976 
  48   0.0000       0.346817         9.4374 
  49   0.0000       0.356280         9.6949 
  50   0.0000       0.365398         9.9430 
  51   0.0000       0.380102        10.3431 
  52   0.0000       0.382375        10.4049 
  53   0.0000       0.425241        11.5714 
  54   0.0000       0.449636        12.2352 
  55   0.0000       0.467668        12.7259 
  56   0.0000       0.477182        12.9848 
  57   0.0000       0.478573        13.0226 
  58   0.0000       0.494581        13.4582 
  59   0.0000       0.517329        14.0772 
  60   0.0000       0.526195        14.3185 
  61   0.0000       0.531645        14.4668 
  62   0.0000       0.545022        14.8308 
  63   0.0000       0.552071        15.0226 
  64   0.0000       0.555080        15.1045 
  65   0.0000       0.567793        15.4504 
  66   0.0000       0.574731        15.6392 
  67   0.0000       0.577163        15.7054 
  68   0.0000       0.600160        16.3312 
  69   0.0000       0.602290        16.3891 
  70   0.0000       0.611893        16.6505 
  71   0.0000       0.612493        16.6668 
  72   0.0000       0.615406        16.7460 
  73   0.0000       0.622045        16.9267 
  74   0.0000       0.623169        16.9573 
  75   0.0000       0.641133        17.4461 
  76   0.0000       0.648108        17.6359 
  77   0.0000       0.651498        17.7281 
  78   0.0000       0.669428        18.2161 
  79   0.0000       0.674219        18.3464 
  80   0.0000       0.684976        18.6391 
  81   0.0000       0.699981        19.0475 
  82   0.0000       0.720549        19.6071 
  83   0.0000       0.733337        19.9551 
  84   0.0000       0.767638        20.8885 
  85   0.0000       0.780887        21.2490 
  86   0.0000       0.799260        21.7490 
  87   0.0000       0.829385        22.5687 
  88   0.0000       0.843697        22.9582 
  89   0.0000       0.908557        24.7231 
  90   0.0000       0.915204        24.9040 
  91   0.0000       0.929814        25.3015 
  92   0.0000       0.972720        26.4691 
  93   0.0000       0.973303        26.4849 
  94   0.0000       0.994953        27.0740 
  95   0.0000       1.012564        27.5533 
  96   0.0000       1.023343        27.8466 
  97   0.0000       1.057974        28.7889 
  98   0.0000       1.066384        29.0178 
  99   0.0000       1.083027        29.4707 
 100   0.0000       1.094512        29.7832 
 101   0.0000       1.115671        30.3590 
 102   0.0000       1.116530        30.3823 
 103   0.0000       1.132554        30.8184 
 104   0.0000       1.149042        31.2670 
 105   0.0000       1.171937        31.8900 
 106   0.0000       1.174168        31.9507 
 107   0.0000       1.201691        32.6997 
 108   0.0000       1.203119        32.7385 
 109   0.0000       1.219169        33.1753 
 110   0.0000       1.238875        33.7115 
 111   0.0000       1.243811        33.8458 
 112   0.0000       1.255615        34.1670 
 113   0.0000       1.262417        34.3521 
 114   0.0000       1.275636        34.7118 
 115   0.0000       1.299235        35.3540 
 116   0.0000       1.303424        35.4680 
 117   0.0000       1.313905        35.7532 
 118   0.0000       1.317816        35.8596 
 119   0.0000       1.349300        36.7163 
 120   0.0000       1.355300        36.8796 
 121   0.0000       1.374956        37.4145 
 122   0.0000       1.390518        37.8379 
 123   0.0000       1.401445        38.1353 
 124   0.0000       1.403773        38.1986 
 125   0.0000       1.411467        38.4080 
 126   0.0000       1.424587        38.7650 
 127   0.0000       1.431669        38.9577 
 128   0.0000       1.456178        39.6246 
 129   0.0000       1.479981        40.2723 
 130   0.0000       1.490654        40.5628 
 131   0.0000       1.500260        40.8241 
 132   0.0000       1.511404        41.1274 
 133   0.0000       1.516103        41.2552 
 134   0.0000       1.551929        42.2301 
 135   0.0000       1.561973        42.5034 
 136   0.0000       1.579869        42.9904 
 137   0.0000       1.592753        43.3410 
 138   0.0000       1.604469        43.6598 
 139   0.0000       1.613173        43.8967 
 140   0.0000       1.626232        44.2520 
 141   0.0000       1.634827        44.4859 
 142   0.0000       1.654800        45.0294 
 143   0.0000       1.676946        45.6320 
 144   0.0000       1.684059        45.8256 
 145   0.0000       1.686855        45.9017 
 146   0.0000       1.722085        46.8603 
 147   0.0000       1.732185        47.1351 
 148   0.0000       1.754020        47.7293 
 149   0.0000       1.754435        47.7406 
 150   0.0000       1.780658        48.4542 
 151   0.0000       1.794477        48.8302 
 152   0.0000       1.801016        49.0081 
 153   0.0000       1.819333        49.5066 
 154   0.0000       1.820526        49.5390 
 155   0.0000       1.840712        50.0883 
 156   0.0000       1.858919        50.5838 
 157   0.0000       1.918494        52.2049 
 158   0.0000       1.939653        52.7806 
 159   0.0000       1.978186        53.8292 
 160   0.0000       2.015100        54.8337 
 161   0.0000       2.017118        54.8886 
 162   0.0000       2.042403        55.5766 
 163   0.0000       2.044723        55.6397 
 164   0.0000       2.052739        55.8579 
 165   0.0000       2.090109        56.8747 
 166   0.0000       2.091865        56.9225 
 167   0.0000       2.152818        58.5812 
 168   0.0000       2.154729        58.6331 
 169   0.0000       2.196770        59.7771 
 170   0.0000       2.252965        61.3063 
 171   0.0000       2.266816        61.6832 
 172   0.0000       2.310140        62.8621 
 173   0.0000       2.327505        63.3346 
 174   0.0000       2.349319        63.9282 
 175   0.0000       2.385362        64.9090 
 176   0.0000       2.437513        66.3281 
 177   0.0000       2.479603        67.4734 
 178   0.0000       2.497945        67.9725 
 179   0.0000       2.526073        68.7380 
 180   0.0000       2.533340        68.9357 
 181   0.0000       2.562824        69.7380 
 182   0.0000       2.623937        71.4010 
 183   0.0000       2.662814        72.4588 
 184   0.0000       2.667428        72.5844 
 185   0.0000       2.694238        73.3139 
 186   0.0000       2.732477        74.3545 
 187   0.0000       2.756080        74.9967 
 188   0.0000       2.782829        75.7246 
 189   0.0000       2.822452        76.8028 
 190   0.0000       2.822738        76.8106 
 191   0.0000       2.842793        77.3563 
 192   0.0000       2.867057        78.0166 
 193   0.0000       2.875389        78.2433 
 194   0.0000       2.891923        78.6932 
 195   0.0000       2.922114        79.5148 
 196   0.0000       2.948345        80.2285 
 197   0.0000       2.994723        81.4906 
 198   0.0000       3.013391        81.9985 
 199   0.0000       3.019364        82.1611 
 200   0.0000       3.023035        82.2610 
 201   0.0000       3.032008        82.5051 
 202   0.0000       3.047059        82.9147 
 203   0.0000       3.074668        83.6660 
 204   0.0000       3.096813        84.2686 
 205   0.0000       3.109301        84.6084 
 206   0.0000       3.147553        85.6493 
 207   0.0000       3.154847        85.8477 
 208   0.0000       3.167078        86.1806 
 209   0.0000       3.182799        86.6084 
 210   0.0000       3.192533        86.8733 
 211   0.0000       3.201323        87.1124 
 212   0.0000       3.218798        87.5880 
 213   0.0000       3.224548        87.7444 
 214   0.0000       3.231675        87.9384 
 215   0.0000       3.257076        88.6295 
 216   0.0000       3.292427        89.5915 
 217   0.0000       3.298926        89.7683 
 218   0.0000       3.328751        90.5799 
 219   0.0000       3.339752        90.8793 
 220   0.0000       3.346324        91.0581 
 221   0.0000       3.380099        91.9772 
 222   0.0000       3.397853        92.4603 
 223   0.0000       3.415796        92.9485 
 224   0.0000       3.421682        93.1087 
 225   0.0000       3.436158        93.5026 
 226   0.0000       3.453865        93.9845 
 227   0.0000       3.460005        94.1515 
 228   0.0000       3.480444        94.7077 
 229   0.0000       3.498593        95.2015 
 230   0.0000       3.501260        95.2741 
 231   0.0000       3.519675        95.7752 
 232   0.0000       3.533399        96.1487 
 233   0.0000       3.534453        96.1774 
 234   0.0000       3.555412        96.7477 
 235   0.0000       3.557388        96.8015 
 236   0.0000       3.578486        97.3756 
 237   0.0000       3.599741        97.9539 
 238   0.0000       3.606222        98.1303 
 239   0.0000       3.628104        98.7257 
 240   0.0000       3.632513        98.8457 
 241   0.0000       3.647273        99.2473 
 242   0.0000       3.658272        99.5466 
 243   0.0000       3.668501        99.8250 
 244   0.0000       3.679360       100.1205 
 245   0.0000       3.698293       100.6357 
 246   0.0000       3.699616       100.6717 
 247   0.0000       3.735362       101.6444 
 248   0.0000       3.738032       101.7170 
 249   0.0000       3.753486       102.1375 
 250   0.0000       3.768639       102.5499 
 251   0.0000       3.799825       103.3985 
 252   0.0000       3.802749       103.4781 
 253   0.0000       3.809531       103.6626 
 254   0.0000       3.841943       104.5446 
 255   0.0000       3.852029       104.8190 
 256   0.0000       3.856996       104.9542 
 257   0.0000       3.897542       106.0575 
 258   0.0000       3.907690       106.3336 
 259   0.0000       3.910931       106.4218 
 260   0.0000       3.932939       107.0207 
 261   0.0000       3.969305       108.0103 
 262   0.0000       3.982333       108.3648 
 263   0.0000       3.991470       108.6134 
 264   0.0000       4.003679       108.9456 
 265   0.0000       4.011056       109.1464 
 266   0.0000       4.016210       109.2866 
 267   0.0000       4.040782       109.9553 
 268   0.0000       4.047056       110.1260 
 269   0.0000       4.085619       111.1754 
 270   0.0000       4.088720       111.2597 
 271   0.0000       4.097621       111.5019 
 272   0.0000       4.109124       111.8150 
 273   0.0000       4.126586       112.2901 
 274   0.0000       4.133407       112.4757 
 275   0.0000       4.150502       112.9409 
 276   0.0000       4.155483       113.0764 
 277   0.0000       4.178621       113.7061 
 278   0.0000       4.194575       114.1402 
 279   0.0000       4.215386       114.7065 
 280   0.0000       4.216370       114.7333 
 281   0.0000       4.231595       115.1476 
 282   0.0000       4.236697       115.2864 
 283   0.0000       4.256272       115.8190 
 284   0.0000       4.263083       116.0044 
 285   0.0000       4.278147       116.4143 
 286   0.0000       4.285290       116.6087 
 287   0.0000       4.304921       117.1429 
 288   0.0000       4.328110       117.7739 
 289   0.0000       4.342866       118.1754 
 290   0.0000       4.357721       118.5796 
 291   0.0000       4.366924       118.8300 
 292   0.0000       4.391553       119.5002 
 293   0.0000       4.399642       119.7204 
 294   0.0000       4.402153       119.7887 
 295   0.0000       4.418780       120.2411 
 296   0.0000       4.449031       121.0643 
 297   0.0000       4.456706       121.2731 
 298   0.0000       4.467712       121.5726 
 299   0.0000       4.485720       122.0627 
 300   0.0000       4.496825       122.3648 
 301   0.0000       4.523839       123.0999 
 302   0.0000       4.525870       123.1552 
 303   0.0000       4.561048       124.1124 
 304   0.0000       4.562346       124.1477 
 305   0.0000       4.570494       124.3695 
 306   0.0000       4.587352       124.8282 
 307   0.0000       4.608382       125.4005 
 308   0.0000       4.615846       125.6035 
 309   0.0000       4.635918       126.1497 
 310   0.0000       4.661214       126.8381 
 311   0.0000       4.671158       127.1087 
 312   0.0000       4.674577       127.2017 
 313   0.0000       4.711428       128.2045 
 314   0.0000       4.727749       128.6486 
 315   0.0000       4.730754       128.7304 
 316   0.0000       4.774448       129.9193 
 317   0.0000       4.786626       130.2507 
 318   0.0000       4.788647       130.3057 
 319   0.0000       4.831425       131.4698 
 320   0.0000       4.838299       131.6568 
 321   0.0000       4.870758       132.5401 
 322   0.0000       4.877718       132.7295 
 323   0.0000       4.906233       133.5054 
 324   0.0000       4.919351       133.8623 
 325   0.0000       4.950327       134.7052 
 326   0.0000       4.957800       134.9086 
 327   0.0000       4.994495       135.9071 
 328   0.0000       5.007223       136.2535 
 329   0.0000       5.049629       137.4074 
 330   0.0000       5.063743       137.7914 
 331   0.0000       5.077339       138.1614 
 332   0.0000       5.138490       139.8254 
 333   0.0000       5.157877       140.3530 
 334   0.0000       5.160225       140.4169 
 335   0.0000       5.212560       141.8410 
 336   0.0000       5.221551       142.0856 
 337   0.0000       5.228465       142.2738 
 338   0.0000       5.243295       142.6773 
 339   0.0000       5.249583       142.8484 
 340   0.0000       5.258160       143.0818 
 341   0.0000       5.300527       144.2347 
 342   0.0000       5.302299       144.2829 
 343   0.0000       5.315627       144.6456 
 344   0.0000       5.331205       145.0695 
 345   0.0000       5.338847       145.2774 
 346   0.0000       5.376423       146.2999 
 347   0.0000       5.412031       147.2688 
 348   0.0000       5.430049       147.7592 
 349   0.0000       5.450564       148.3174 
 350   0.0000       5.493726       149.4919 
 351   0.0000       5.497801       149.6028 
 352   0.0000       5.535216       150.6209 
 353   0.0000       5.537390       150.6800 
 354   0.0000       5.549936       151.0214 
 355   0.0000       5.559929       151.2934 
 356   0.0000       5.600584       152.3996 
 357   0.0000       5.615814       152.8141 
 358   0.0000       5.621590       152.9712 
 359   0.0000       5.649222       153.7232 
 360   0.0000       5.683646       154.6599 
 361   0.0000       5.762066       156.7938 
 362   0.0000       5.767467       156.9408 
 363   0.0000       5.808234       158.0501 
 364   0.0000       5.813736       158.1998 
 365   0.0000       5.845308       159.0589 
 366   0.0000       5.869246       159.7103 
 367   0.0000       5.900352       160.5567 
 368   0.0000       5.918790       161.0585 
 369   0.0000       5.977312       162.6509 
 370   0.0000       6.020029       163.8133 
 371   0.0000       6.063606       164.9991 
 372   0.0000       6.081352       165.4820 
 373   0.0000       6.108587       166.2231 
 374   0.0000       6.140585       167.0938 
 375   0.0000       6.169887       167.8912 
 376   0.0000       6.196847       168.6248 
 377   0.0000       6.314810       171.8347 
 378   0.0000       6.340324       172.5290 
 379   0.0000       6.495804       176.7598 
 380   0.0000      23.972877       652.3352 
 381   0.0000      24.182324       658.0345 
 382   0.0000      24.208711       658.7525 
 383   0.0000      24.361429       662.9082 
 384   0.0000      24.574127       668.6960 
 385   0.0000      24.603549       669.4966 
 386   0.0000      24.731946       672.9905 
 387   0.0000      24.841780       675.9792 

                    ********************************
                    * MULLIKEN POPULATION ANALYSIS *
                    ********************************

-----------------------
MULLIKEN ATOMIC CHARGES
-----------------------
   0 C :   -0.146923
   1 C :    0.218490
   2 C :   -0.243301
   3 C :   -0.243301
   4 C :    0.218490
   5 C :   -0.245251
   6 C :   -0.146923
   7 C :   -0.130149
   8 H :    0.052913
   9 H :    0.097473
  10 H :    0.092610
  11 H :    0.092610
  12 H :    0.097473
  13 H :    0.056174
  14 H :    0.057655
  15 H :    0.052913
  16 H :    0.062178
  17 H :    0.056870
Sum of atomic charges:   -0.0000000

--------------------------------
MULLIKEN REDUCED ORBITAL CHARGES
--------------------------------
  0 C s       :     3.182528  s :     3.182528
      pz      :     0.884699  p :     2.833775
      px      :     0.935504
      py      :     1.013572
      dz2     :     0.025908  d :     0.120475
      dxz     :     0.023280
      dyz     :     0.025853
      dx2y2   :     0.018642
      dxy     :     0.026791
      f0      :     0.001867  f :     0.010145
      f+1     :     0.001745
      f-1     :     0.001988
      f+2     :     0.001099
      f-2     :     0.001137
      f+3     :     0.001134
      f-3     :     0.001174
  1 C s       :     2.886820  s :     2.886820
      pz      :     0.963614  p :     2.741994
      px      :     0.884806
      py      :     0.893575
      dz2     :     0.033993  d :     0.143754
      dxz     :     0.023293
      dyz     :     0.026432
      dx2y2   :     0.031981
      dxy     :     0.028054
      f0      :     0.001557  f :     0.008941
      f+1     :     0.001069
      f-1     :     0.001287
      f+2     :     0.001313
      f-2     :     0.000998
      f+3     :     0.001443
      f-3     :     0.001275
  2 C s       :     3.212619  s :     3.212619
      pz      :     0.970575  p :     2.910104
      px      :     0.967917
      py      :     0.971612
      dz2     :     0.027626  d :     0.112067
      dxz     :     0.025430
      dyz     :     0.039176
      dx2y2   :     0.010751
      dxy     :     0.009085
      f0      :     0.001259  f :     0.008511
      f+1     :     0.001977
      f-1     :     0.002264
      f+2     :     0.000715
      f-2     :     0.000518
      f+3     :     0.000898
      f-3     :     0.000880
  3 C s       :     3.212619  s :     3.212619
      pz      :     0.970575  p :     2.910104
      px      :     0.967917
      py      :     0.971612
      dz2     :     0.027626  d :     0.112068
      dxz     :     0.025430
      dyz     :     0.039176
      dx2y2   :     0.010751
      dxy     :     0.009085
      f0      :     0.001259  f :     0.008511
      f+1     :     0.001977
      f-1     :     0.002264
      f+2     :     0.000715
      f-2     :     0.000518
      f+3     :     0.000898
      f-3     :     0.000880
  4 C s       :     2.886821  s :     2.886821
      pz      :     0.963614  p :     2.741994
      px      :     0.884806
      py      :     0.893575
      dz2     :     0.033993  d :     0.143754
      dxz     :     0.023293
      dyz     :     0.026432
      dx2y2   :     0.031981
      dxy     :     0.028054
      f0      :     0.001557  f :     0.008941
      f+1     :     0.001069
      f-1     :     0.001287
      f+2     :     0.001313
      f-2     :     0.000998
      f+3     :     0.001443
      f-3     :     0.001275
  5 C s       :     3.197688  s :     3.197688
      pz      :     0.885197  p :     2.928235
      px      :     1.039424
      py      :     1.003613
      dz2     :     0.029057  d :     0.112744
      dxz     :     0.014600
      dyz     :     0.020867
      dx2y2   :     0.030369
      dxy     :     0.017852
      f0      :     0.000806  f :     0.006584
      f+1     :     0.000807
      f-1     :     0.001341
      f+2     :     0.001118
      f-2     :     0.001053
      f+3     :     0.000984
      f-3     :     0.000475
  6 C s       :     3.182528  s :     3.182528
      pz      :     0.884700  p :     2.833775
      px      :     0.935504
      py      :     1.013572
      dz2     :     0.025908  d :     0.120475
      dxz     :     0.023280
      dyz     :     0.025853
      dx2y2   :     0.018642
      dxy     :     0.026791
      f0      :     0.001867  f :     0.010145
      f+1     :     0.001745
      f-1     :     0.001988
      f+2     :     0.001099
      f-2     :     0.001137
      f+3     :     0.001134
      f-3     :     0.001174
  7 C s       :     3.110503  s :     3.110503
      pz      :     1.001105  p :     2.909802
      px      :     0.992329
      py      :     0.916369
      dz2     :     0.027054  d :     0.101744
      dxz     :     0.011975
      dyz     :     0.017803
      dx2y2   :     0.024312
      dxy     :     0.020601
      f0      :     0.000431  f :     0.008100
      f+1     :     0.001046
      f-1     :     0.001830
      f+2     :     0.000782
      f-2     :     0.001133
      f+3     :     0.001870
      f-3     :     0.001007
  8 H s       :     0.896483  s :     0.896483
      pz      :     0.016949  p :     0.048126
      px      :     0.014020
      py      :     0.017157
      dz2     :     0.000572  d :     0.002478
      dxz     :     0.000411
      dyz     :     0.000469
      dx2y2   :     0.000594
      dxy     :     0.000432
  9 H s       :     0.860849  s :     0.860849
      pz      :     0.019633  p :     0.039343
      px      :     0.009966
      py      :     0.009744
      dz2     :     0.000759  d :     0.002334
      dxz     :     0.000688
      dyz     :     0.000715
      dx2y2   :     0.000112
      dxy     :     0.000061
 10 H s       :     0.868294  s :     0.868294
      pz      :     0.011629  p :     0.037049
      px      :     0.010049
      py      :     0.015370
      dz2     :     0.000501  d :     0.002047
      dxz     :     0.000299
      dyz     :     0.000561
      dx2y2   :     0.000370
      dxy     :     0.000315
 11 H s       :     0.868294  s :     0.868294
      pz      :     0.011629  p :     0.037049
      px      :     0.010049
      py      :     0.015370
      dz2     :     0.000501  d :     0.002047
      dxz     :     0.000299
      dyz     :     0.000561
      dx2y2   :     0.000370
      dxy     :     0.000315
 12 H s       :     0.860849  s :     0.860849
      pz      :     0.019633  p :     0.039343
      px      :     0.009966
      py      :     0.009744
      dz2     :     0.000759  d :     0.002334
      dxz     :     0.000688
      dyz     :     0.000715
      dx2y2   :     0.000112
      dxy     :     0.000061
 13 H s       :     0.898778  s :     0.898778
      pz      :     0.008255  p :     0.042785
      px      :     0.025366
      py      :     0.009164
      dz2     :     0.000195  d :     0.002264
      dxz     :     0.000710
      dyz     :     0.000024
      dx2y2   :     0.000614
      dxy     :     0.000720
 14 H s       :     0.898188  s :     0.898188
      pz      :     0.008439  p :     0.041923
      px      :     0.009191
      py      :     0.024293
      dz2     :     0.000192  d :     0.002235
      dxz     :     0.000068
      dyz     :     0.000670
      dx2y2   :     0.000720
      dxy     :     0.000585
 15 H s       :     0.896483  s :     0.896483
      pz      :     0.016949  p :     0.048126
      px      :     0.014020
      py      :     0.017157
      dz2     :     0.000572  d :     0.002478
      dxz     :     0.000411
      dyz     :     0.000469
      dx2y2   :     0.000594
      dxy     :     0.000432
 16 H s       :     0.885310  s :     0.885310
      pz      :     0.010401  p :     0.050061
      px      :     0.011258
      py      :     0.028401
      dz2     :     0.000222  d :     0.002451
      dxz     :     0.000065
      dyz     :     0.000740
      dx2y2   :     0.000857
      dxy     :     0.000567
 17 H s       :     0.898073  s :     0.898073
      pz      :     0.010215  p :     0.042778
      px      :     0.025016
      py      :     0.007546
      dz2     :     0.000216  d :     0.002279
      dxz     :     0.000736
      dyz     :     0.000016
      dx2y2   :     0.000615
      dxy     :     0.000696


                     *******************************
                     * LOEWDIN POPULATION ANALYSIS *
                     *******************************

----------------------
LOEWDIN ATOMIC CHARGES
----------------------
   0 C :   -0.014749
   1 C :   -0.034396
   2 C :    0.011065
   3 C :    0.011065
   4 C :   -0.034396
   5 C :    0.026282
   6 C :   -0.014749
   7 C :    0.022546
   8 H :   -0.001611
   9 H :    0.005886
  10 H :   -0.002076
  11 H :   -0.002076
  12 H :    0.005886
  13 H :    0.007427
  14 H :    0.009422
  15 H :   -0.001611
  16 H :    0.000473
  17 H :    0.005612

-------------------------------
LOEWDIN REDUCED ORBITAL CHARGES
-------------------------------
  0 C s       :     2.673497  s :     2.673497
      pz      :     0.921486  p :     2.811674
      px      :     0.923317
      py      :     0.966872
      dz2     :     0.098304  d :     0.473910
      dxz     :     0.106418
      dyz     :     0.093659
      dx2y2   :     0.078066
      dxy     :     0.097463
      f0      :     0.008464  f :     0.055668
      f+1     :     0.012385
      f-1     :     0.013194
      f+2     :     0.004699
      f-2     :     0.004460
      f+3     :     0.005087
      f-3     :     0.007380
  1 C s       :     2.677770  s :     2.677770
      pz      :     0.957238  p :     2.802378
      px      :     0.912362
      py      :     0.932777
      dz2     :     0.137781  d :     0.499124
      dxz     :     0.070938
      dyz     :     0.087087
      dx2y2   :     0.107892
      dxy     :     0.095426
      f0      :     0.007801  f :     0.055124
      f+1     :     0.006442
      f-1     :     0.007607
      f+2     :     0.009454
      f-2     :     0.008322
      f+3     :     0.006732
      f-3     :     0.008765
  2 C s       :     2.726009  s :     2.726009
      pz      :     1.043235  p :     2.821205
      px      :     0.837566
      py      :     0.940404
      dz2     :     0.092626  d :     0.396953
      dxz     :     0.065718
      dyz     :     0.151364
      dx2y2   :     0.050214
      dxy     :     0.037032
      f0      :     0.008544  f :     0.044767
      f+1     :     0.007622
      f-1     :     0.015101
      f+2     :     0.002737
      f-2     :     0.002047
      f+3     :     0.003562
      f-3     :     0.005153
  3 C s       :     2.726009  s :     2.726009
      pz      :     1.043235  p :     2.821205
      px      :     0.837566
      py      :     0.940404
      dz2     :     0.092626  d :     0.396954
      dxz     :     0.065718
      dyz     :     0.151364
      dx2y2   :     0.050214
      dxy     :     0.037032
      f0      :     0.008544  f :     0.044767
      f+1     :     0.007622
      f-1     :     0.015101
      f+2     :     0.002737
      f-2     :     0.002047
      f+3     :     0.003562
      f-3     :     0.005153
  4 C s       :     2.677770  s :     2.677770
      pz      :     0.957238  p :     2.802378
      px      :     0.912362
      py      :     0.932778
      dz2     :     0.137781  d :     0.499124
      dxz     :     0.070938
      dyz     :     0.087088
      dx2y2   :     0.107892
      dxy     :     0.095426
      f0      :     0.007801  f :     0.055124
      f+1     :     0.006442
      f-1     :     0.007607
      f+2     :     0.009454
      f-2     :     0.008322
      f+3     :     0.006732
      f-3     :     0.008765
  5 C s       :     2.694164  s :     2.694164
      pz      :     0.887643  p :     2.811858
      px      :     0.975885
      py      :     0.948331
      dz2     :     0.098192  d :     0.425673
      dxz     :     0.058496
      dyz     :     0.082519
      dx2y2   :     0.127398
      dxy     :     0.059068
      f0      :     0.005871  f :     0.042022
      f+1     :     0.004915
      f-1     :     0.006560
      f+2     :     0.007664
      f-2     :     0.008769
      f+3     :     0.005442
      f-3     :     0.002802
  6 C s       :     2.673497  s :     2.673497
      pz      :     0.921486  p :     2.811674
      px      :     0.923317
      py      :     0.966872
      dz2     :     0.098304  d :     0.473910
      dxz     :     0.106417
      dyz     :     0.093660
      dx2y2   :     0.078066
      dxy     :     0.097463
      f0      :     0.008464  f :     0.055668
      f+1     :     0.012385
      f-1     :     0.013194
      f+2     :     0.004699
      f-2     :     0.004460
      f+3     :     0.005087
      f-3     :     0.007380
  7 C s       :     2.681063  s :     2.681063
      pz      :     0.940250  p :     2.853862
      px      :     0.966609
      py      :     0.947003
      dz2     :     0.092348  d :     0.397831
      dxz     :     0.037480
      dyz     :     0.060748
      dx2y2   :     0.128858
      dxy     :     0.078396
      f0      :     0.000622  f :     0.044699
      f+1     :     0.005845
      f-1     :     0.010895
      f+2     :     0.005133
      f-2     :     0.007315
      f+3     :     0.009963
      f-3     :     0.004927
  8 H s       :     0.816722  s :     0.816722
      pz      :     0.047009  p :     0.155920
      px      :     0.049437
      py      :     0.059473
      dz2     :     0.006236  d :     0.028969
      dxz     :     0.005079
      dyz     :     0.005025
      dx2y2   :     0.006789
      dxy     :     0.005839
  9 H s       :     0.818542  s :     0.818542
      pz      :     0.068230  p :     0.147562
      px      :     0.039075
      py      :     0.040257
      dz2     :     0.009809  d :     0.028010
      dxz     :     0.007855
      dyz     :     0.008404
      dx2y2   :     0.001238
      dxy     :     0.000705
 10 H s       :     0.823351  s :     0.823351
      pz      :     0.046488  p :     0.151833
      px      :     0.043100
      py      :     0.062245
      dz2     :     0.005988  d :     0.026892
      dxz     :     0.003778
      dyz     :     0.007320
      dx2y2   :     0.005116
      dxy     :     0.004690
 11 H s       :     0.823351  s :     0.823351
      pz      :     0.046488  p :     0.151832
      px      :     0.043100
      py      :     0.062245
      dz2     :     0.005988  d :     0.026892
      dxz     :     0.003778
      dyz     :     0.007320
      dx2y2   :     0.005116
      dxy     :     0.004690
 12 H s       :     0.818542  s :     0.818542
      pz      :     0.068230  p :     0.147562
      px      :     0.039075
      py      :     0.040257
      dz2     :     0.009809  d :     0.028010
      dxz     :     0.007855
      dyz     :     0.008404
      dx2y2   :     0.001238
      dxy     :     0.000705
 13 H s       :     0.820740  s :     0.820740
      pz      :     0.038361  p :     0.143941
      px      :     0.072241
      py      :     0.033339
      dz2     :     0.002432  d :     0.027892
      dxz     :     0.008581
      dyz     :     0.000188
      dx2y2   :     0.007507
      dxy     :     0.009184
 14 H s       :     0.819401  s :     0.819401
      pz      :     0.038437  p :     0.143164
      px      :     0.041259
      py      :     0.063469
      dz2     :     0.002408  d :     0.028012
      dxz     :     0.000963
      dyz     :     0.007915
      dx2y2   :     0.009166
      dxy     :     0.007560
 15 H s       :     0.816722  s :     0.816722
      pz      :     0.047009  p :     0.155920
      px      :     0.049437
      py      :     0.059473
      dz2     :     0.006236  d :     0.028970
      dxz     :     0.005079
      dyz     :     0.005025
      dx2y2   :     0.006789
      dxy     :     0.005839
 16 H s       :     0.812223  s :     0.812223
      pz      :     0.044704  p :     0.158185
      px      :     0.049239
      py      :     0.064242
      dz2     :     0.002526  d :     0.029119
      dxz     :     0.001016
      dyz     :     0.008914
      dx2y2   :     0.008908
      dxy     :     0.007755
 17 H s       :     0.817530  s :     0.817530
      pz      :     0.044989  p :     0.148659
      px      :     0.069250
      py      :     0.034419
      dz2     :     0.002506  d :     0.028200
      dxz     :     0.009771
      dyz     :     0.000067
      dx2y2   :     0.007425
      dxy     :     0.008431


                      *****************************
                      * MAYER POPULATION ANALYSIS *
                      *****************************

  NA   - Mulliken gross atomic population
  ZA   - Total nuclear charge
  QA   - Mulliken gross atomic charge
  VA   - Mayer's total valence
  BVA  - Mayer's bonded valence
  FA   - Mayer's free valence

  ATOM       NA         ZA         QA         VA         BVA        FA
  0 C      6.1469     6.0000    -0.1469     3.8936     3.8936    -0.0000
  1 C      5.7815     6.0000     0.2185     3.6689     3.6689     0.0000
  2 C      6.2433     6.0000    -0.2433     3.9718     3.9718    -0.0000
  3 C      6.2433     6.0000    -0.2433     3.9718     3.9718    -0.0000
  4 C      5.7815     6.0000     0.2185     3.6689     3.6689    -0.0000
  5 C      6.2453     6.0000    -0.2453     4.1270     4.1270     0.0000
  6 C      6.1469     6.0000    -0.1469     3.8936     3.8936    -0.0000
  7 C      6.1301     6.0000    -0.1301     3.9570     3.9570    -0.0000
  8 H      0.9471     1.0000     0.0529     1.0280     1.0280    -0.0000
  9 H      0.9025     1.0000     0.0975     0.9897     0.9897    -0.0000
 10 H      0.9074     1.0000     0.0926     1.0162     1.0162    -0.0000
 11 H      0.9074     1.0000     0.0926     1.0162     1.0162    -0.0000
 12 H      0.9025     1.0000     0.0975     0.9897     0.9897    -0.0000
 13 H      0.9438     1.0000     0.0562     1.0281     1.0281    -0.0000
 14 H      0.9423     1.0000     0.0577     1.0153     1.0153     0.0000
 15 H      0.9471     1.0000     0.0529     1.0280     1.0280    -0.0000
 16 H      0.9378     1.0000     0.0622     1.0335     1.0335     0.0000
 17 H      0.9431     1.0000     0.0569     1.0223     1.0223    -0.0000

  Mayer bond orders larger than 0.100000
B(  0-C ,  1-C ) :   0.9002 B(  0-C ,  6-C ) :   0.9254 B(  0-C ,  7-C ) :   0.9775 
B(  0-C ,  8-H ) :   1.0245 B(  1-C ,  2-C ) :   0.9421 B(  1-C ,  5-C ) :   0.9490 
B(  1-C ,  9-H ) :   0.9764 B(  2-C ,  3-C ) :   1.9956 B(  2-C , 10-H ) :   0.9838 
B(  3-C ,  4-C ) :   0.9421 B(  3-C , 11-H ) :   0.9838 B(  4-C ,  5-C ) :   0.9490 
B(  4-C ,  6-C ) :   0.9002 B(  4-C , 12-H ) :   0.9764 B(  5-C , 13-H ) :   1.0184 
B(  5-C , 14-H ) :   1.0260 B(  6-C ,  7-C ) :   0.9775 B(  6-C , 15-H ) :   1.0245 
B(  7-C , 16-H ) :   1.0253 B(  7-C , 17-H ) :   1.0167 

-------
TIMINGS
-------

Total SCF time: 0 days 0 hours 1 min 51 sec 

Total time                  ....     111.712 sec
Sum of individual times     ....     111.256 sec  ( 99.6%)

Fock matrix formation       ....     110.476 sec  ( 98.9%)
Diagonalization             ....       0.219 sec  (  0.2%)
Density matrix formation    ....       0.014 sec  (  0.0%)
Population analysis         ....       0.026 sec  (  0.0%)
Initial guess               ....       0.178 sec  (  0.2%)
Orbital Transformation      ....       0.000 sec  (  0.0%)
Orbital Orthonormalization  ....       0.000 sec  (  0.0%)
DIIS solution               ....       0.111 sec  (  0.1%)
SOSCF solution              ....       0.164 sec  (  0.1%)

Maximum memory used throughout the entire SCF-calculation: 242.1 MB


           ************************************************************
           *        Program running with 8 parallel MPI-processes     *
           *              working on a common directory               *
           ************************************************************


--------------------------------------------------------------------------------
                             ORCA-MATRIX DRIVEN CI
--------------------------------------------------------------------------------


Wavefunction type
-----------------
Correlation treatment                      ...      CCSD     
Single excitations                         ... ON
Orbital optimization                       ... OFF
Calculation of Z vector                    ... OFF
Calculation of Brueckner orbitals          ... OFF
Perturbative triple excitations            ... ON
Calculation of F12 correction              ... OFF
Frozen core treatment                      ... chemical core (16 el)
Reference Wavefunction                     ... RHF
  Internal Orbitals:     8 ...   28 ( 21 MO's/ 42 electrons)
  Virtual  Orbitals:    29 ...  387 (359 MO's              )
Number of AO's                             ...    388
Number of electrons                        ...     58
Number of correlated electrons             ...     42

Algorithmic settings
--------------------
Integral transformation                    ... All integrals via the RI transformation
K(C) Formation                             ... RI-DLPNO
   PNO-Integral Storage                    ... ON DISK
   PNO occupation number cut-off           ... 3.330e-07
   Singles PNO occupation number cut-off   ... 9.990e-09
   PNO Mulliken prescreening cut-off       ... 1.000e-03
   Domain cut-off (Mulliken population)    ... 1.000e-03
   PNO Normalization                       ...    1
Maximum number of iterations               ...        50
Convergence tolerance (max. residuum)      ... 2.500e-05
Level shift for amplitude update           ... 2.000e-01
Maximum number of DIIS vectors             ...         7
DIIS turned on at iteration                ...         0
Damping before turning on DIIS             ...     0.500
Damping after turning on DIIS              ...     0.000
Pair specific amplitude update             ... OFF
Natural orbital iterations                 ... OFF
Perturbative natural orbital generation    ... OFF
Printlevel                                 ... 2

Singles Fock matrix elements calculated using PNOs.

Memory handling:
----------------
Maximum memory for working arrays          ...  16000 MB
Data storage in matrix containers          ... UNCOMPRESSED
Data type for integral storage             ... DOUBLE
In-Core Storage of quantities:
   Amplitudes+Sigma Vector      ... NO
   J+K operators                ... NO
   DIIS vectors                 ... NO
   3-external integrals         ... NO
   4-external integrals         ... NO

Localization treatment:
-----------------------
Localization option                        ...    6
Localization threshhold                    ... -1.0e+00
Using relative localization threshhold     ... 1.0e-08
Neglect threshold for strong pairs         ... 1.000e-04 Eh
Prescreening threshold for very weak pairs ... 1.000e-06 Eh

Initializing the integral package          ... done
Localizing the valence orbitals
------------------------------------------------------------------------------
                           ORCA ORBITAL LOCALIZATION
------------------------------------------------------------------------------

Input orbitals are from                  ... P1_crest_conf_1_DLPNO.gbw
Output orbitals are to                   ... P1_crest_conf_1_DLPNO.loc
Max. number of iterations                ... 128
Localizations seeded randomly            ... off
Convergence tolerance                    ... 1.000e-06
Using relative localization threshhold   ... 1.000e-08
Treshold for strong local MOs            ... 9.500e-01
Treshold for bond MOs                    ... 8.500e-01
Operator                                 ... 0
Orbital range for localization           ... 8 to 28
Localization criterion                   ... FOSTER-BOYS (AUGMENTED HESSIAN)
Doing the dipole integrals     ... o.k.
Initial value of the localization sum :   146.275159
ITERATION   0 : L=  222.6368479069 DL=  7.64e+01 (AVERGE_DL)=    0.6030149986 
ITERATION   1 : L=  234.1826365590 DL=  1.15e+01 (AVERGE_DL)=    0.2344780287 
ITERATION   2 : L=  234.5523641108 DL=  3.70e-01 (AVERGE_DL)=    0.0419595923 
ITERATION   3 : L=  234.5530465454 DL=  6.82e-04 (AVERGE_DL)=    0.0018026892 
ITERATION   4 : L=  234.5530474788 DL=  9.33e-07 (AVERGE_DL)=    0.0000666690 
LOCALIZATION SUM CONVERGED

------------------------------------------------------
AUGMENTED HESSIAN OPTIMIZATION OF FOSTER-BOYS ORBITALS
------------------------------------------------------

Spin operator:           0
Orbital window:          8 to 28
Number of iterations:    128
Gradient tolerance:      1.000e-06
Number of pairs:         210
Davidson threshold:      2000
Diagonalization method:  LAPACK
Iter:    0   L: 234.5530474788   Grad. norm: 1.203043e-03
   *** Likely close to a maximum now. ***
       Augmented Hessian eigenvalues:  2.87e-08 -5.46e+00 -1.20e+01 -1.28e+01 ... 
Iter:    1   L: 234.5530474931   Grad. norm: 4.648270e-09
LOCALIZATION HAS CONVERGED.

Eigenvalues of the Hessian:
  0 -5.460e+00
  1 -1.202e+01
  2 -1.285e+01
  3 -1.756e+01
  4 -1.773e+01
  5 -1.786e+01
  6 -1.801e+01
  7 -1.803e+01
  8 -1.827e+01
  9 -1.852e+01
    ...


--------------------------------------------------------------------------------
                    LOCALIZED MOLECULAR ORBITAL COMPOSITIONS
--------------------------------------------------------------------------------

The Mulliken populations for each LMO on each atom are computed
The LMO`s will be ordered according to atom index and type
  (A) Strongly localized MO`s have populations of >=0.950 on one atom
  (B) Two center bond orbitals have populations of >=0.850 on two atoms
  (C) Other MO`s are considered to be `delocalized`

FOUND  -   0 strongly local MO`s
       -  21 two center bond MO`s
       -   0 significantly delocalized MO`s

Bond-like localized orbitals:
MO  28:  17H  -   0.471568  and   7C  -   0.548056
MO  27:  16H  -   0.464391  and   7C  -   0.570308
MO  26:  15H  -   0.471687  and   6C  -   0.551164
MO  25:  14H  -   0.473970  and   5C  -   0.555775
MO  24:  13H  -   0.470402  and   5C  -   0.552005
MO  23:  12H  -   0.462880  and   4C  -   0.548113
MO  22:  11H  -   0.453154  and   3C  -   0.550912
MO  21:  10H  -   0.453154  and   2C  -   0.550912
MO  20:   9H  -   0.462880  and   1C  -   0.548113
MO  19:   8H  -   0.471687  and   0C  -   0.551164
MO  18:   7C  -   0.494742  and   6C  -   0.538454
MO  17:   7C  -   0.494742  and   0C  -   0.538453
MO  16:   6C  -   0.537779  and   4C  -   0.472940
MO  15:   6C  -   0.524333  and   0C  -   0.524333
MO  14:   5C  -   0.503236  and   4C  -   0.515701
MO  13:   5C  -   0.503236  and   1C  -   0.515701
MO  12:   4C  -   0.453051  and   3C  -   0.568566
MO  11:   3C  -   0.516638  and   2C  -   0.516638
MO  10:   3C  -   0.514173  and   2C  -   0.514173
MO   9:   2C  -   0.568566  and   1C  -   0.453051
MO   8:   1C  -   0.472940  and   0C  -   0.537780
Localized MO's were stored in: P1_crest_conf_1_DLPNO.loc

Localizing the core orbitals
------------------------------------------------------------------------------
                           ORCA ORBITAL LOCALIZATION
------------------------------------------------------------------------------

Input orbitals are from                  ... P1_crest_conf_1_DLPNO.loc
Output orbitals are to                   ... P1_crest_conf_1_DLPNO.loc
Max. number of iterations                ... 128
Localizations seeded randomly            ... off
Convergence tolerance                    ... 1.000e-06
Using relative localization threshhold   ... 1.000e-08
Treshold for strong local MOs            ... 9.500e-01
Treshold for bond MOs                    ... 8.500e-01
Operator                                 ... 0
Orbital range for localization           ... 0 to 7
Localization criterion                   ... FOSTER-BOYS (AUGMENTED HESSIAN)
Doing the dipole integrals     ... o.k.
Initial value of the localization sum :    64.285719
ITERATION   0 : L=   64.2857228943 DL=  3.51e-06 (AVERGE_DL)=    0.0003539550 
ITERATION   1 : L=   64.2857228943 DL=  0.00e+00 (AVERGE_DL)=    0.0000000000 
LOCALIZATION SUM CONVERGED

------------------------------------------------------
AUGMENTED HESSIAN OPTIMIZATION OF FOSTER-BOYS ORBITALS
------------------------------------------------------

Spin operator:           0
Orbital window:          0 to 7
Number of iterations:    128
Gradient tolerance:      1.000e-06
Number of pairs:         28
Davidson threshold:      2000
Diagonalization method:  LAPACK
Iter:    0   L: 64.2857228943   Grad. norm: 1.863307e-06
   *** Likely close to a maximum now. ***
       Augmented Hessian eigenvalues:  4.32e-14 -2.54e+01 -3.23e+01 -3.23e+01 ... 
Iter:    1   L: 64.2857228943   Grad. norm: 4.100635e-15
LOCALIZATION HAS CONVERGED.

Eigenvalues of the Hessian:
  0 -2.545e+01
  1 -3.228e+01
  2 -3.228e+01
  3 -3.260e+01
  4 -3.290e+01
  5 -3.290e+01
  6 -3.447e+01
  7 -3.447e+01
  8 -3.505e+01
  9 -3.505e+01
    ...


--------------------------------------------------------------------------------
                    LOCALIZED MOLECULAR ORBITAL COMPOSITIONS
--------------------------------------------------------------------------------

The Mulliken populations for each LMO on each atom are computed
The LMO`s will be ordered according to atom index and type
  (A) Strongly localized MO`s have populations of >=0.950 on one atom
  (B) Two center bond orbitals have populations of >=0.850 on two atoms
  (C) Other MO`s are considered to be `delocalized`

FOUND  -   8 strongly local MO`s
       -   0 two center bond MO`s
       -   0 significantly delocalized MO`s

Rather strongly localized orbitals:
MO   7:   7C  -   1.001076
MO   6:   6C  -   1.001216
MO   5:   5C  -   1.000884
MO   4:   4C  -   1.002512
MO   3:   3C  -   1.001137
MO   2:   2C  -   1.001137
MO   1:   1C  -   1.002512
MO   0:   0C  -   1.001216
Localized MO's were stored in: P1_crest_conf_1_DLPNO.loc

Warning: reference  - re-canonicalizations have been set to INT 1 VIRT 1
Warning: internal orbitals are localized - no re-canonicalization of internal orbitals
Warning: UsePNO is turned on - no re-canonicalization of internal and virtual orbitals

--------------------------
CLOSED-SHELL FOCK OPERATOR
--------------------------

Restoring SHARK [2] ... ok
Time needed for Fock operator              ...           15.478 sec
Reference energy                           ...   -308.785618773

--------------
DLPNO SETTINGS (2015 fully linear scaling implementation)
--------------

TCutMKN:           1.000e-03
TCutPAO:           1.000e-03
TCutPNO:           3.330e-07
TCutPNOSingles:    9.990e-09
TCutEN:            9.700e-01
TCutPAOExt:        1.000e-01
TCutPairs:         1.000e-04
TCutPre:           1.000e-06
TCutOSV:           1.000e-06
TCutDOij:          1.000e-05
TCutDO:            1.000e-02
TCutC:             1.000e-04
TCutCPAO:          1.000e-03
TCutCMO:           1.000e-03
TScaleDOMP2PreScr: 2.000e+00
TScaleMKNMP2PreScr:1.000e+01
TScalePNOMP2PreScr:1.000e+00
PAO overlap thresh 1.000e-08
Using PNOs for Singles Fock computation
Use new domains
Use fully linear algorithm
TCutTNO:           1.000e-09
TCutMP2Pairs:      1.000e-05
TCutDOStrong:      2.000e-03
TCutMKNStrong:     1.000e-02
TCutMKNWeak:       1.000e-01
TCutDOWeak:        4.000e-03
NTCutTNO:          1

--------------------------
Mulliken population of the LMOs            ... ok
Performing proximity check                 ... No problems found
Calculating differential overlap integrals ... ok

--------------------------
ELECTRON PAIR PRESCREENING
--------------------------

Dipole-based pair screening          .... used

   TCutDOij = 1.000000e-05
   TCutPre  = 1.000000e-06
   .... Finished loop over pairs
Total time spent in the prescreening                  ...     0.000 sec
sum of pair energies estimated for screened out pairs ...       0.000000000000 Eh
Thresholds for map construction and integral transformation for crude MP2:
   TCutMKN                    ...     1.0e-02
   TCutDO                     ...     2.0e-02
   TCutPairs                  ...     1.0e-04
   TCutPNO_CrudeMP2           ...     3.3e-07
   TCutPNOSingles_CrudeMP2    ...     1.0e-08
--------------------------------
LOCAL RI TRANSFORMATION (IAVPAO)
--------------------------------

Orbital window:       8 to 28
Number of PAOs:     388
Basis functions:    388 (148 shells)
Aux. functions:     908 (276 shells)
Use SHARK:           on

Processing maps (0.0 sec)
Average map sizes:
   Aux shells -> MOs              21.0
   Aux shells -> PAOs            388.0
   MOs        -> AO shells       147.1
   PAOs       -> AO shells       148.0

Calculating integrals (0.6 sec, 56.456 MB)
Sorting integrals (0.1 sec, 56.445 MB)
Total time for the integral transformation: 0.7 sec
--------------------------------
INITIAL GUESS AND PNO GENERATION
--------------------------------

PNO truncation parameters                   .... 
    PAOOverlapThresh   =        1.000e-08

    TCutPairs          =        1.000e-04
    TCutPNO            =        3.330e-07
    TCutPNOSingles     =        9.990e-09
    TCutMP2Pairs       =        1.000e-05
    TCutMKN            =        1.000e-02
    TCutDO             =        2.000e-02

Pair selection                          .... not used
Type of local MP2 treatment                 .... semi-local MP2
Strategy for PNO selection                  .... occupation number selection
Pair density normalization                  .... MP2 norm
Spin component scaling                      .... not used

   .... Finished loop over pairs
Making pair pair interaction lists          ... done

                       ===========================
                        221 OF  231 PAIRS ARE KEPT CCSD PAIRS
                         10 OF  231 PAIRS ARE KEPT MP2 PAIRS FOR (T)
                          0 OF  231 PAIRS ARE SKIPPED
                       ===========================

Total time spent in the initial guess                 ...     2.292 sec
SL-MP2 correlation energy (all non-screened pairs)    ...      -1.273604075714 Eh

Initial PNO correlation energy                        ...      -1.268751887991 Eh
sum of pair energies prescreened and skipped MP2 pairs...       0.000000000000 Eh
sum of pair energies of crude MP2 skipped pairs only  ...       0.000000000000 Eh
sum of MP2 pair energies for pairs that were not kept ...      -0.000731441989 Eh
sum of PNO error estimates for the kept pairs         ...      -0.004120745734 Eh
                                                          --------------------
sum of all corrections                                         -0.004852187723
Initial total correlation energy                               -1.273604075714
Thresholds for map construction and integral transformation for fine MP2 and CCSD(T) calculation:
   TCutMKN   ...     1.0e-03
   TCutDO    ...     1.0e-02
   TCutPairs ...     1.0e-04
   TCutCMO   ...     1.0e-03
   TCutCPAO  ...     1.0e-03

Thresholds for map construction and integral transformation for strong Triples:
   TCutMKN   ...     1.0e-02
   TCutDO    ...     2.0e-02
   TCutCMO   ...     1.0e-03
   TCutCPAO  ...     1.0e-03

Thresholds for map construction and integral transformation for weak Triples:
   TCutMKN   ...     1.0e-01
   TCutDO    ...     4.0e-02
   TCutCMO   ...     1.0e-03
   TCutCPAO  ...     1.0e-03

--------------------------------
LOCAL RI TRANSFORMATION (IAVPAO)
--------------------------------

Orbital window:       8 to 28
Number of PAOs:     388
Basis functions:    388 (148 shells)
Aux. functions:     908 (276 shells)
Use SHARK:           on

Processing maps (0.0 sec)
Average map sizes:
   Aux shells -> MOs              21.0
   Aux shells -> PAOs            388.0
   MOs        -> AO shells       147.1
   PAOs       -> AO shells       148.0

Calculating integrals (0.6 sec, 56.456 MB)
Sorting integrals (0.1 sec, 56.445 MB)
Total time for the integral transformation: 0.7 sec
--------------------------------
INITIAL GUESS AND PNO GENERATION
--------------------------------

PNO truncation parameters                   .... 
    PAOOverlapThresh   =        1.000e-08

    TCutPairs          =        1.000e-04
    TCutPNO            =        3.330e-07
    TCutPNOSingles     =        9.990e-09
    TCutMP2Pairs       =        1.000e-05
    TCutMKN            =        1.000e-03
    TCutDO             =        1.000e-02

Pair selection                          .... not used
Type of local MP2 treatment                 .... semi-local MP2
Strategy for PNO selection                  .... occupation number selection
Pair density normalization                  .... MP2 norm
Spin component scaling                      .... not used

   .... Finished loop over pairs

 PNO Occupation Number Statistics: 
  | Av. % of trace(Dij) retained        ...  98.923497514557
  | sigma^2 in % of trace(Dij) retained ...   1.35e+00
  | Av. % of trace(Di) retained         ...  99.998974984161
  | sigma^2 in % of trace(Di) retained  ...   9.06e-08
 Distributions of % trace(Dij) recovered:
  |       >= 99.9  ...    68 ( 29.4 % of all pairs)
  |   [90.0, 99.0) ...    81 ( 35.1 % of all pairs)
  |   [99.0, 99.9) ...    82 ( 35.5 % of all pairs)
 Distributions of % trace(Di) recovered :
  |       >= 99.9  ...    21 (100.0 % of all I-pairs )

Making pair pair interaction lists          ... done

                       ===========================
                        221 OF  231 PAIRS ARE KEPT
                       ===========================

Total time spent in the initial guess                 ...     3.619 sec
SL-MP2 correlation energy (all non-screened pairs)    ...      -1.274970362899 Eh

Initial PNO correlation energy                        ...      -1.270121562385 Eh
sum of pair energies estimated for screened out pairs ...       0.000000000000 Eh
sum of MP2 pair energies for pairs that were not kept ...      -0.000733002567 Eh
sum of PNO error estimates for the kept pairs         ...      -0.004115797948 Eh
                                                          --------------------
sum of all corrections                                         -0.004848800515
Initial total correlation energy                               -1.274970362899
Thresholds for map construction and integral transformation for fine MP2 and CCSD(T) calculation:
   TCutMKN   ...     1.0e-03
   TCutDO    ...     1.0e-02
   TCutPairs ...     1.0e-04
   TCutCMO   ...     1.0e-03
   TCutCPAO  ...     1.0e-03

Time for aux screen maps:            0.002
Time for maps after fine MP2:            0.009
-----------------------------
LOCAL RI TRANSFORMATION (IJV)
-----------------------------

Orbital window:       8 to 28
Basis functions:    388 (148 shells)
Aux. functions:     908 (276 shells)
Use SHARK:           on

Processing maps (0.0 sec)
Average map sizes:
   Aux shells -> MOs(i)           21.0
   Aux shells -> MOs(j)           21.0
   MOs        -> AO shells       147.1

Calculating integrals (0.5 sec, 3.065 MB)
Sorting integrals (0.0 sec, 3.055 MB)
Total time for the integral transformation: 0.6 sec
--------------------------------
LOCAL RI TRANSFORMATION (VABPAO)
--------------------------------

Number of PAOs:     388
Basis functions:    388 (148 shells)
Aux. functions:     908 (276 shells)
Use SHARK:           on

Processing maps (0.0 sec)
Average map sizes:
   Aux shells -> PAOs            388.0
   PAOs       -> AO shells       148.0

Calculating integrals (1.2 sec, 1042.902 MB)
Finished


-------------------------------------
Pair Pair Term precalculation with     
RI-(ij|mn) and (im|jn) transformation  
ON THE FLY                             
-------------------------------------

   IBatch   1 (of   1)              ... done (   84.106 sec)
Total EXT                           ...          84.106 sec

---------------------
RI-PNO TRANSFORMATION
---------------------

Total Number of PNOs                   ...  7635
Average number of PNOs per pair        ...    34
Maximal number of PNOs per pair        ...    64
   #pairs with  1 -  5 PNOs   :    0
   #pairs with  6 - 10 PNOs   :    0
   #pairs with 11 - 15 PNOs   :   14
   #pairs with 16 - 20 PNOs   :   28
   #pairs with 21 - 25 PNOs   :   14
   #pairs with 26 - 30 PNOs   :   42
   #pairs with 31 - 35 PNOs   :   27
   #pairs with 36 - 40 PNOs   :   23
   #pairs with 41 - 45 PNOs   :   15
   #pairs with 46 - 50 PNOs   :   13
   #pairs with 51 - 55 PNOs   :   40
   #pairs with 56 - 60 PNOs   :    4
   #pairs with 61 - 65 PNOs   :    1

Generation of (ij|ab)[P] integrals            ... on
Generation of (ia|bc)[P],(ja|bc)[P] integrals ... on
Storage of 3 and 4 external integrals         ... on
Generation of ALL (ka|bc)[P] integrals        ... on
Keep RI integrals in memory                   ... off

Ibatch:  1 (of  1)
Starting 2-4 index PNO integral generation ... done

Timings:
Total PNO integral transformation time     ...         24.636 sec
Size of the 3-external file                ...       101 MB
Size of the 4-external file                ...       595 MB
Size of the IKJL file                      ...         0 MB
Size of the all 3-external file            ...      1064 MB
Size of the 1-external file                ...         3 MB

Making pair/pair overlap matrices          ... done (    3.682 sec)
Size of the pair overlap file              ... 336 MB
Redoing the guess amplitudes               ... done (    0.009 sec)

-------------------------
FINAL STARTUP INFORMATION
-------------------------

E(0)                                       ...   -308.785618773
E(SL-MP2)                                  ...     -1.274970363
E(SL-MP2) including corrections            ...     -1.274970363
Initial E(tot)                             ...   -310.060589136
<T|T>                                      ...      0.387607775
Number of pairs included                   ... 221
Total number of pairs                      ... 231

------------------------------------------------
                  RHF COUPLED CLUSTER ITERATIONS
------------------------------------------------

Number of PNO amplitudes to be optimized   ...       300749
Number of non-PNO amplitudes               ...     28482701
Untruncated number of regular amplitudes   ...     29771511

Iter       E(tot)           E(Corr)          Delta-E          Residual     Time
  0   -310.060649058     -1.270181485      0.004788878      0.015206548   21.29
                           *** Turning on DIIS ***
  1   -310.108594642     -1.318127069     -0.047945584      0.010962632    6.58
  2   -310.142718471     -1.352250898     -0.034123829      0.005905212    6.44
  3   -310.148557253     -1.358089680     -0.005838782      0.003171104    6.25
  4   -310.149953987     -1.359486414     -0.001396734      0.001587354    6.43
  5   -310.150302434     -1.359834861     -0.000348447      0.000598437    6.31
  6   -310.150362347     -1.359894774     -0.000059913      0.000170810    6.27
  7   -310.150359502     -1.359891929      0.000002845      0.000029076    6.28
  8   -310.150359180     -1.359891606      0.000000322      0.000006005    6.47
               --- The Coupled-Cluster iterations have converged ---

----------------------
COUPLED CLUSTER ENERGY
----------------------

E(0)                                       ...   -308.785618773
E(CORR)(strong-pairs)                      ...     -1.359891606
E(CORR)(weak-pairs)                        ...     -0.004848801
E(CORR)(corrected)                         ...     -1.364740407
E(TOT)                                     ...   -310.150359180
Singles Norm <S|S>**1/2                    ...      0.058508431  
T1 diagnostic                              ...      0.009028047  

------------------
LARGEST AMPLITUDES
------------------
  10-> 29  10-> 29       0.063908
  11-> 29  11-> 29       0.055180
  11-> 29  10-> 29       0.050414
  24-> 32  24-> 32       0.041820
   9-> 31   9-> 31       0.041253
  12-> 31  12-> 31       0.041253
  23-> 32  23-> 32       0.040470
  20-> 32  20-> 32       0.040470
  25-> 32  25-> 32       0.039002
  16-> 30  16-> 30       0.037067
   8-> 30   8-> 30       0.037067
  22-> 33  22-> 33       0.036539
  21-> 33  21-> 33       0.036539
  15-> 29  15-> 29       0.035945
  28-> 32  28-> 32       0.035174
  17-> 29  17-> 29       0.034417


-------------------------------------------
DLPNO BASED TRIPLES CORRECTION
-------------------------------------------

Singles multiplier          ...  1.000000
TCutTNO                     ... 1.000e-09
TCutMP2Pairs                ... 1.000e-05
TCutDOStrong                ... 2.000e-02
TCutMKNStrong               ... 1.000e-02
TCutDOWeak                  ... 4.000e-02
TCutMKNWeak                 ... 1.000e-01

Fragment selection                          .... not used
Fock matrix occ-virt block is zero --> Setting DT_in_Triples to false.
Number of Triples that are to be computed   ...      1715

 . . . . . . . . .
10% done  
20% done  
30% done  
40% done  
50% done  
60% done  
70% done  
80% done  
90% done               (    150.041 sec)
Triples timings:
Total time for T0               ...   160.065 sec
Total time for Iterative (T)    ...     0.000 sec
Total time of overall (T)       ...   163.574 sec

Triples List generation         ...     0.000 sec
TNO generation                  ...    10.010 sec
Pair density generation         ...     0.005 sec
Look up tables                  ...     0.000 sec
Generating 3-index integrals    ...   103.890 sec
  Make 4-ind.int. from 3-ind.int...    18.391 sec
  Projecting amplitudes (D + S) ...    12.105 sec
  Downprojecting integrals      ...     0.002 sec
  Energy contr. (sum over a,b,c)...     3.406 sec
Fitting ET(->0)                 ...     0.000 sec

Everything after 3-index        ...    46.151 sec

Timing details:
 TNO integrals                  ...   118.595 sec
   Reading 3-index integrals    ...     5.737 sec
   Sorting integrals            ...    24.263 sec
       Sorting integrals 1      ...     0.001 sec
       Sorting integrals 2      ...    14.980 sec
       Sorting integrals 3      ...     4.342 sec
       Sorting integrals 4      ...     0.103 sec
       Sorting integrals 5      ...     0.144 sec
       Sorting integrals 6      ...     4.693 sec
   Calculating local VM**-1/2   ...     0.590 sec
   Orthogonal. integrals        ...     1.597 sec
   Multipl. 3-index integrals   ...    86.407 sec
   All concerning IRIab (w/TNO) ...    10.947 sec

 Calculate W0/W1                ...    12.230 sec
 W 3-ext contribution           ...     6.223 sec
 W 3-int contribution           ...     1.877 sec
 Sorting W                      ...     3.720 sec

 V exchange contribution        ...     0.897 sec

 Timings for Triples without generation
     of 3-index integrals       ...    46.146 sec
       0 weak pairs             ...    44.571 sec
       1 weak pair              ...     1.576 sec
       2 weak pairs             ...     0.000 sec
       3 weak pairs             ...     0.000 sec
  Extra time for extrapolation  ...     0.000 sec

Number of Triples   (0, 1, 2, 3 weak pairs; overall):   1555     160       0       0  (  1715)
Number of Atoms     (0, 1, 2, 3 weak pairs; overall):   14.5    12.2     0.0     0.0  (    18)
Number of PAOs      (0, 1, 2, 3 weak pairs; overall):  336.4   295.1     0.0     0.0  (   388)
Number of AuxFcns   (0, 1, 2, 3 weak pairs; overall):  437.5   333.9     0.0     0.0  (   908)
Number of TNOs      (0, 1, 2, 3 weak pairs         ):   92.2    66.0     0.0     0.0
Aver. Number of NTNO, Atoms, PAOs, AuxFcns / Triples:   1715    89.7    14.3   332.5   427.9

Triples Correction (T)                     ...     -0.062640045
Final correlation energy                   ...     -1.427380452
E(CCSD)                                    ...   -310.150359180
E(CCSD(T))                                 ...   -310.212999225



--------------------------------------------------------------------------------
                                    TIMINGS
--------------------------------------------------------------------------------


Total execution time                   ...      376.354 sec

Localization of occupied MO's          ...        0.435 sec (  0.1%)
Fock Matrix Formation                  ...       15.478 sec (  4.1%)
Global overlap, Fock, MKN matrices     ...        0.362 sec (  0.1%)
Differential overlap integrals         ...        0.570 sec (  0.2%)
Organizing maps                        ...        0.029 sec (  0.0%)
RI 3-index integral generations        ...        3.164 sec (  0.8%)
RI-PNO integral transformation         ...      114.017 sec ( 30.3%)
Initial Guess                          ...        5.976 sec (  1.6%)
DIIS Solver                            ...        0.167 sec (  0.0%)
State Vector Update                    ...        0.014 sec (  0.0%)
Sigma-vector construction              ...       72.153 sec ( 19.2%)
  <D|H|D>(0-ext)                       ...       10.838 sec ( 15.0% of sigma)
  <D|H|D>(2-ext Fock)                  ...        0.019 sec (  0.0% of sigma)
  <D|H|D>(2-ext)                       ...       11.372 sec ( 15.8% of sigma)
  <D|H|D>(4-ext)                       ...        6.914 sec (  9.6% of sigma)
  <D|H|D>(4-ext-corr)                  ...       29.305 sec ( 40.6% of sigma)
  CCSD doubles correction              ...        0.200 sec (  0.3% of sigma)
  <S|H|S>                              ...        0.630 sec (  0.9% of sigma)
  <S|H|D>(1-ext)                       ...        0.228 sec (  0.3% of sigma)
  <D|H|S>(1-ext)                       ...        0.051 sec (  0.1% of sigma)
  <S|H|D>(3-ext)                       ...        2.327 sec (  3.2% of sigma)
  Fock-dressing                        ...        5.615 sec (  7.8% of sigma)
  Singles amplitudes                   ...        0.475 sec (  0.7% of sigma)
  (ik|jl)-dressing                     ...        1.423 sec (  2.0% of sigma)
  (ij|ab),(ia|jb)-dressing             ...        1.290 sec (  1.8% of sigma)
  Pair energies                        ...        0.013 sec (  0.0% of sigma)
Total Time for computing (T)           ...      163.653 sec ( 43.5% of ALL)


Maximum memory used throughout the entire MDCI-calculation: 7988.7 MB

-------------------------   --------------------
FINAL SINGLE POINT ENERGY      -310.212999224743
-------------------------   --------------------


                            ***************************************
                            *     ORCA property calculations      *
                            ***************************************


  WARNING: The energy has been calculated at the MDCI level but the densities
           used in the property calculations are still SCF densities
           MDCI response densities have not been calculated 
           use %mdci Density linearized end
           or  %mdci Density unrelaxed end
           or  %mdci Density orbopt end

                                    ---------------------
                                    Active property flags
                                    ---------------------



Timings for individual modules:

Sum of individual times         ...      490.139 sec (=   8.169 min)
GTO integral calculation        ...        0.588 sec (=   0.010 min)   0.1 %
SCF iterations                  ...      111.974 sec (=   1.866 min)  22.8 %
MDCI module                     ...      377.576 sec (=   6.293 min)  77.0 %
                             ****ORCA TERMINATED NORMALLY****
TOTAL RUN TIME: 0 days 0 hours 8 minutes 10 seconds 435 msec
