Job Start Time: Tue Sep  6 22:57:48 MDT 2022
SLURM Job ID: 71229
SLURM Job Name: P3_crest_conf_2
 Entering Gaussian System, Link 0=/opt/apps/Gaussian/G16C/g16/g16
 Initial command:
 /opt/apps/Gaussian/G16C/g16/l1.exe "/tmp/Gau-2140892.inp" -scrdir="/tmp/"
 Entering Link 1 = /opt/apps/Gaussian/G16C/g16/l1.exe PID=   2140893.
  
 Copyright (c) 1988-2019, Gaussian, Inc.  All Rights Reserved.
  
 This is part of the Gaussian(R) 16 program.  It is based on
 the Gaussian(R) 09 system (copyright 2009, Gaussian, Inc.),
 the Gaussian(R) 03 system (copyright 2003, Gaussian, Inc.),
 the Gaussian(R) 98 system (copyright 1998, Gaussian, Inc.),
 the Gaussian(R) 94 system (copyright 1995, Gaussian, Inc.),
 the Gaussian 92(TM) system (copyright 1992, Gaussian, Inc.),
 the Gaussian 90(TM) system (copyright 1990, Gaussian, Inc.),
 the Gaussian 88(TM) system (copyright 1988, Gaussian, Inc.),
 the Gaussian 86(TM) system (copyright 1986, Carnegie Mellon
 University), and the Gaussian 82(TM) system (copyright 1983,
 Carnegie Mellon University). Gaussian is a federally registered
 trademark of Gaussian, Inc.
  
 This software contains proprietary and confidential information,
 including trade secrets, belonging to Gaussian, Inc.
  
 This software is provided under written license and may be
 used, copied, transmitted, or stored only in accord with that
 written license.
  
 The following legend is applicable only to US Government
 contracts under FAR:
  
                    RESTRICTED RIGHTS LEGEND
  
 Use, reproduction and disclosure by the US Government is
 subject to restrictions as set forth in subparagraphs (a)
 and (c) of the Commercial Computer Software - Restricted
 Rights clause in FAR 52.227-19.
  
 Gaussian, Inc.
 340 Quinnipiac St., Bldg. 40, Wallingford CT 06492
  
  
 ---------------------------------------------------------------
 Warning -- This program may not be used in any manner that
 competes with the business of Gaussian, Inc. or will provide
 assistance to any competitor of Gaussian, Inc.  The licensee
 of this program is prohibited from giving any competitor of
 Gaussian, Inc. access to this program.  By using this program,
 the user acknowledges that Gaussian, Inc. is engaged in the
 business of creating and licensing software in the field of
 computational chemistry and represents and warrants to the
 licensee that it is not a competitor of Gaussian, Inc. and that
 it will not use this program in any manner prohibited above.
 ---------------------------------------------------------------
  

 Cite this work as:
 Gaussian 16, Revision C.01,
 M. J. Frisch, G. W. Trucks, H. B. Schlegel, G. E. Scuseria, 
 M. A. Robb, J. R. Cheeseman, G. Scalmani, V. Barone, 
 G. A. Petersson, H. Nakatsuji, X. Li, M. Caricato, A. V. Marenich, 
 J. Bloino, B. G. Janesko, R. Gomperts, B. Mennucci, H. P. Hratchian, 
 J. V. Ortiz, A. F. Izmaylov, J. L. Sonnenberg, D. Williams-Young, 
 F. Ding, F. Lipparini, F. Egidi, J. Goings, B. Peng, A. Petrone, 
 T. Henderson, D. Ranasinghe, V. G. Zakrzewski, J. Gao, N. Rega, 
 G. Zheng, W. Liang, M. Hada, M. Ehara, K. Toyota, R. Fukuda, 
 J. Hasegawa, M. Ishida, T. Nakajima, Y. Honda, O. Kitao, H. Nakai, 
 T. Vreven, K. Throssell, J. A. Montgomery, Jr., J. E. Peralta, 
 F. Ogliaro, M. J. Bearpark, J. J. Heyd, E. N. Brothers, K. N. Kudin, 
 V. N. Staroverov, T. A. Keith, R. Kobayashi, J. Normand, 
 K. Raghavachari, A. P. Rendell, J. C. Burant, S. S. Iyengar, 
 J. Tomasi, M. Cossi, J. M. Millam, M. Klene, C. Adamo, R. Cammi, 
 J. W. Ochterski, R. L. Martin, K. Morokuma, O. Farkas, 
 J. B. Foresman, and D. J. Fox, Gaussian, Inc., Wallingford CT, 2019.
 
 ******************************************
 Gaussian 16:  AS64L-G16RevC.01  3-Jul-2019
                 6-Sep-2022 
 ******************************************
 %nprocshared=16
 Will use up to   16 processors via shared memory.
 %mem=72GB
 -------------------------
 # B3LYP/def2tzvp opt freq
 -------------------------
 1/18=20,19=15,26=3,38=1/1,3;
 2/9=110,12=2,17=6,18=5,40=1/2;
 3/5=44,7=101,11=2,25=1,30=1,71=1,74=-5/1,2,3;
 4//1;
 5/5=2,38=5/2;
 6/7=2,8=2,9=2,10=2,28=1/1;
 7//1,2,3,16;
 1/18=20,19=15,26=3/3(2);
 2/9=110/2;
 99//99;
 2/9=110/2;
 3/5=44,7=101,11=2,25=1,30=1,71=1,74=-5/1,2,3;
 4/5=5,16=3,69=1/1;
 5/5=2,38=5/2;
 7//1,2,3,16;
 1/18=20,19=15,26=3/3(-5);
 2/9=110/2;
 6/7=2,8=2,9=2,10=2,19=2,28=1/1;
 99/9=1/99;
 ---------------
 P3_crest_conf_2
 ---------------
 Symbolic Z-matrix:
 Charge =  0 Multiplicity = 1
 C                    -0.3033    0.775    -0.736 
 C                     1.0995    1.1182   -0.1753 
 C                     1.1325    0.6632    1.2608 
 C                     1.1327   -0.6632    1.2608 
 C                     1.0996   -1.118    -0.1754 
 C                     1.9268    0.0001   -0.8259 
 C                    -0.3033   -0.7751   -0.7361 
 C                    -1.5171   -1.2001    0.0952 
 C                    -2.4606   -0.0001    0.0094 
 C                    -1.5173    1.2       0.0951 
 H                    -0.3877    1.1677   -1.7519 
 H                     1.4154    2.1432   -0.3566 
 H                     1.1185    1.3277    2.1061 
 H                     1.1189   -1.3277    2.106 
 H                     1.4157   -2.143    -0.3568 
 H                     2.9673    0.0002   -0.5024 
 H                     1.8818    0.0002   -1.9143 
 H                    -0.3878   -1.1678   -1.752 
 H                    -1.9758   -2.1153   -0.278 
 H                    -1.2265   -1.3599    1.1336 
 H                    -2.9753   -0.0002   -0.9534 
 H                    -3.2109   -0.0001    0.7996 
 H                    -1.2267    1.3599    1.1335 
 H                    -1.976     2.115    -0.2782 
 

 GradGradGradGradGradGradGradGradGradGradGradGradGradGradGradGradGradGrad
 Berny optimization.
 Initialization pass.
                           ----------------------------
                           !    Initial Parameters    !
                           ! (Angstroms and Degrees)  !
 --------------------------                            --------------------------
 ! Name  Definition              Value          Derivative Info.                !
 --------------------------------------------------------------------------------
 ! R1    R(1,2)                  1.5492         estimate D2E/DX2                !
 ! R2    R(1,7)                  1.5501         estimate D2E/DX2                !
 ! R3    R(1,10)                 1.5314         estimate D2E/DX2                !
 ! R4    R(1,11)                 1.0924         estimate D2E/DX2                !
 ! R5    R(2,3)                  1.5068         estimate D2E/DX2                !
 ! R6    R(2,6)                  1.5355         estimate D2E/DX2                !
 ! R7    R(2,12)                 1.0878         estimate D2E/DX2                !
 ! R8    R(3,4)                  1.3264         estimate D2E/DX2                !
 ! R9    R(3,13)                 1.0753         estimate D2E/DX2                !
 ! R10   R(4,5)                  1.5069         estimate D2E/DX2                !
 ! R11   R(4,14)                 1.0752         estimate D2E/DX2                !
 ! R12   R(5,6)                  1.5354         estimate D2E/DX2                !
 ! R13   R(5,7)                  1.5492         estimate D2E/DX2                !
 ! R14   R(5,15)                 1.0879         estimate D2E/DX2                !
 ! R15   R(6,16)                 1.0896         estimate D2E/DX2                !
 ! R16   R(6,17)                 1.0893         estimate D2E/DX2                !
 ! R17   R(7,8)                  1.5313         estimate D2E/DX2                !
 ! R18   R(7,18)                 1.0924         estimate D2E/DX2                !
 ! R19   R(8,9)                  1.5289         estimate D2E/DX2                !
 ! R20   R(8,19)                 1.0896         estimate D2E/DX2                !
 ! R21   R(8,20)                 1.0901         estimate D2E/DX2                !
 ! R22   R(9,10)                 1.5289         estimate D2E/DX2                !
 ! R23   R(9,21)                 1.0917         estimate D2E/DX2                !
 ! R24   R(9,22)                 1.0897         estimate D2E/DX2                !
 ! R25   R(10,23)                1.0901         estimate D2E/DX2                !
 ! R26   R(10,24)                1.0895         estimate D2E/DX2                !
 ! A1    A(2,1,7)              102.8005         estimate D2E/DX2                !
 ! A2    A(2,1,10)             117.3824         estimate D2E/DX2                !
 ! A3    A(2,1,11)             109.0806         estimate D2E/DX2                !
 ! A4    A(7,1,10)             106.1147         estimate D2E/DX2                !
 ! A5    A(7,1,11)             111.0643         estimate D2E/DX2                !
 ! A6    A(10,1,11)            110.1014         estimate D2E/DX2                !
 ! A7    A(1,2,3)              107.3303         estimate D2E/DX2                !
 ! A8    A(1,2,6)               99.9739         estimate D2E/DX2                !
 ! A9    A(1,2,12)             114.2919         estimate D2E/DX2                !
 ! A10   A(3,2,6)               99.9122         estimate D2E/DX2                !
 ! A11   A(3,2,12)             115.9137         estimate D2E/DX2                !
 ! A12   A(6,2,12)             117.3253         estimate D2E/DX2                !
 ! A13   A(2,3,4)              107.5756         estimate D2E/DX2                !
 ! A14   A(2,3,13)             124.2165         estimate D2E/DX2                !
 ! A15   A(4,3,13)             128.1676         estimate D2E/DX2                !
 ! A16   A(3,4,5)              107.5668         estimate D2E/DX2                !
 ! A17   A(3,4,14)             128.1707         estimate D2E/DX2                !
 ! A18   A(5,4,14)             124.2219         estimate D2E/DX2                !
 ! A19   A(4,5,6)               99.9143         estimate D2E/DX2                !
 ! A20   A(4,5,7)              107.34           estimate D2E/DX2                !
 ! A21   A(4,5,15)             115.908          estimate D2E/DX2                !
 ! A22   A(6,5,7)               99.9825         estimate D2E/DX2                !
 ! A23   A(6,5,15)             117.3182         estimate D2E/DX2                !
 ! A24   A(7,5,15)             114.2878         estimate D2E/DX2                !
 ! A25   A(2,6,5)               93.4673         estimate D2E/DX2                !
 ! A26   A(2,6,16)             112.8687         estimate D2E/DX2                !
 ! A27   A(2,6,17)             113.6415         estimate D2E/DX2                !
 ! A28   A(5,6,16)             112.8759         estimate D2E/DX2                !
 ! A29   A(5,6,17)             113.6475         estimate D2E/DX2                !
 ! A30   A(16,6,17)            109.6384         estimate D2E/DX2                !
 ! A31   A(1,7,5)              102.7862         estimate D2E/DX2                !
 ! A32   A(1,7,8)              106.1111         estimate D2E/DX2                !
 ! A33   A(1,7,18)             111.0715         estimate D2E/DX2                !
 ! A34   A(5,7,8)              117.379          estimate D2E/DX2                !
 ! A35   A(5,7,18)             109.0897         estimate D2E/DX2                !
 ! A36   A(8,7,18)             110.1055         estimate D2E/DX2                !
 ! A37   A(7,8,9)              103.9367         estimate D2E/DX2                !
 ! A38   A(7,8,19)             112.3867         estimate D2E/DX2                !
 ! A39   A(7,8,20)             110.2736         estimate D2E/DX2                !
 ! A40   A(9,8,19)             112.3479         estimate D2E/DX2                !
 ! A41   A(9,8,20)             109.4528         estimate D2E/DX2                !
 ! A42   A(19,8,20)            108.3829         estimate D2E/DX2                !
 ! A43   A(8,9,10)             103.4267         estimate D2E/DX2                !
 ! A44   A(8,9,21)             109.8984         estimate D2E/DX2                !
 ! A45   A(8,9,22)             112.5954         estimate D2E/DX2                !
 ! A46   A(10,9,21)            109.9006         estimate D2E/DX2                !
 ! A47   A(10,9,22)            112.5935         estimate D2E/DX2                !
 ! A48   A(21,9,22)            108.3553         estimate D2E/DX2                !
 ! A49   A(1,10,9)             103.9368         estimate D2E/DX2                !
 ! A50   A(1,10,23)            110.2644         estimate D2E/DX2                !
 ! A51   A(1,10,24)            112.3888         estimate D2E/DX2                !
 ! A52   A(9,10,23)            109.4523         estimate D2E/DX2                !
 ! A53   A(9,10,24)            112.3506         estimate D2E/DX2                !
 ! A54   A(23,10,24)           108.3872         estimate D2E/DX2                !
 ! D1    D(7,1,2,3)            -66.7207         estimate D2E/DX2                !
 ! D2    D(7,1,2,6)             37.046          estimate D2E/DX2                !
 ! D3    D(7,1,2,12)           163.2551         estimate D2E/DX2                !
 ! D4    D(10,1,2,3)            49.2705         estimate D2E/DX2                !
 ! D5    D(10,1,2,6)           153.0372         estimate D2E/DX2                !
 ! D6    D(10,1,2,12)          -80.7537         estimate D2E/DX2                !
 ! D7    D(11,1,2,3)           175.3363         estimate D2E/DX2                !
 ! D8    D(11,1,2,6)           -80.897          estimate D2E/DX2                !
 ! D9    D(11,1,2,12)           45.3121         estimate D2E/DX2                !
 ! D10   D(2,1,7,5)              0.0002         estimate D2E/DX2                !
 ! D11   D(2,1,7,8)            123.8071         estimate D2E/DX2                !
 ! D12   D(2,1,7,18)          -116.5407         estimate D2E/DX2                !
 ! D13   D(10,1,7,5)          -123.8195         estimate D2E/DX2                !
 ! D14   D(10,1,7,8)            -0.0126         estimate D2E/DX2                !
 ! D15   D(10,1,7,18)          119.6396         estimate D2E/DX2                !
 ! D16   D(11,1,7,5)           116.535          estimate D2E/DX2                !
 ! D17   D(11,1,7,8)          -119.6581         estimate D2E/DX2                !
 ! D18   D(11,1,7,18)           -0.0058         estimate D2E/DX2                !
 ! D19   D(2,1,10,9)          -138.1639         estimate D2E/DX2                !
 ! D20   D(2,1,10,23)          -20.9455         estimate D2E/DX2                !
 ! D21   D(2,1,10,24)          100.1023         estimate D2E/DX2                !
 ! D22   D(7,1,10,9)           -23.999          estimate D2E/DX2                !
 ! D23   D(7,1,10,23)           93.2194         estimate D2E/DX2                !
 ! D24   D(7,1,10,24)         -145.7328         estimate D2E/DX2                !
 ! D25   D(11,1,10,9)           96.2738         estimate D2E/DX2                !
 ! D26   D(11,1,10,23)        -146.5078         estimate D2E/DX2                !
 ! D27   D(11,1,10,24)         -25.46           estimate D2E/DX2                !
 ! D28   D(1,2,3,4)             69.9937         estimate D2E/DX2                !
 ! D29   D(1,2,3,13)          -107.8617         estimate D2E/DX2                !
 ! D30   D(6,2,3,4)            -33.8169         estimate D2E/DX2                !
 ! D31   D(6,2,3,13)           148.3276         estimate D2E/DX2                !
 ! D32   D(12,2,3,4)          -160.9017         estimate D2E/DX2                !
 ! D33   D(12,2,3,13)           21.2429         estimate D2E/DX2                !
 ! D34   D(1,2,6,5)            -59.0024         estimate D2E/DX2                !
 ! D35   D(1,2,6,16)          -175.6324         estimate D2E/DX2                !
 ! D36   D(1,2,6,17)            58.7196         estimate D2E/DX2                !
 ! D37   D(3,2,6,5)             50.7383         estimate D2E/DX2                !
 ! D38   D(3,2,6,16)           -65.8917         estimate D2E/DX2                !
 ! D39   D(3,2,6,17)           168.4603         estimate D2E/DX2                !
 ! D40   D(12,2,6,5)           176.8707         estimate D2E/DX2                !
 ! D41   D(12,2,6,16)           60.2407         estimate D2E/DX2                !
 ! D42   D(12,2,6,17)          -65.4072         estimate D2E/DX2                !
 ! D43   D(2,3,4,5)             -0.0094         estimate D2E/DX2                !
 ! D44   D(2,3,4,14)          -177.7442         estimate D2E/DX2                !
 ! D45   D(13,3,4,5)           177.7349         estimate D2E/DX2                !
 ! D46   D(13,3,4,14)            0.0001         estimate D2E/DX2                !
 ! D47   D(3,4,5,6)             33.835          estimate D2E/DX2                !
 ! D48   D(3,4,5,7)            -69.9882         estimate D2E/DX2                !
 ! D49   D(3,4,5,15)           160.9089         estimate D2E/DX2                !
 ! D50   D(14,4,5,6)          -148.3187         estimate D2E/DX2                !
 ! D51   D(14,4,5,7)           107.8581         estimate D2E/DX2                !
 ! D52   D(14,4,5,15)          -21.2448         estimate D2E/DX2                !
 ! D53   D(4,5,6,2)            -50.7452         estimate D2E/DX2                !
 ! D54   D(4,5,6,16)            65.8788         estimate D2E/DX2                !
 ! D55   D(4,5,6,17)          -168.4622         estimate D2E/DX2                !
 ! D56   D(7,5,6,2)             59.0083         estimate D2E/DX2                !
 ! D57   D(7,5,6,16)           175.6323         estimate D2E/DX2                !
 ! D58   D(7,5,6,17)           -58.7087         estimate D2E/DX2                !
 ! D59   D(15,5,6,2)          -176.8675         estimate D2E/DX2                !
 ! D60   D(15,5,6,16)          -60.2436         estimate D2E/DX2                !
 ! D61   D(15,5,6,17)           65.4154         estimate D2E/DX2                !
 ! D62   D(4,5,7,1)             66.7244         estimate D2E/DX2                !
 ! D63   D(4,5,7,8)            -49.2508         estimate D2E/DX2                !
 ! D64   D(4,5,7,18)          -175.3277         estimate D2E/DX2                !
 ! D65   D(6,5,7,1)            -37.0501         estimate D2E/DX2                !
 ! D66   D(6,5,7,8)           -153.0253         estimate D2E/DX2                !
 ! D67   D(6,5,7,18)            80.8978         estimate D2E/DX2                !
 ! D68   D(15,5,7,1)          -163.2542         estimate D2E/DX2                !
 ! D69   D(15,5,7,8)            80.7707         estimate D2E/DX2                !
 ! D70   D(15,5,7,18)          -45.3062         estimate D2E/DX2                !
 ! D71   D(1,7,8,9)             24.0186         estimate D2E/DX2                !
 ! D72   D(1,7,8,19)           145.7481         estimate D2E/DX2                !
 ! D73   D(1,7,8,20)           -93.2046         estimate D2E/DX2                !
 ! D74   D(5,7,8,9)            138.1611         estimate D2E/DX2                !
 ! D75   D(5,7,8,19)          -100.1094         estimate D2E/DX2                !
 ! D76   D(5,7,8,20)            20.9379         estimate D2E/DX2                !
 ! D77   D(18,7,8,9)           -96.263          estimate D2E/DX2                !
 ! D78   D(18,7,8,19)           25.4665         estimate D2E/DX2                !
 ! D79   D(18,7,8,20)          146.5138         estimate D2E/DX2                !
 ! D80   D(7,8,9,10)           -39.1199         estimate D2E/DX2                !
 ! D81   D(7,8,9,21)            78.1759         estimate D2E/DX2                !
 ! D82   D(7,8,9,22)          -160.9347         estimate D2E/DX2                !
 ! D83   D(19,8,9,10)         -160.8752         estimate D2E/DX2                !
 ! D84   D(19,8,9,21)          -43.5795         estimate D2E/DX2                !
 ! D85   D(19,8,9,22)           77.31           estimate D2E/DX2                !
 ! D86   D(20,8,9,10)           78.6727         estimate D2E/DX2                !
 ! D87   D(20,8,9,21)         -164.0315         estimate D2E/DX2                !
 ! D88   D(20,8,9,22)          -43.1421         estimate D2E/DX2                !
 ! D89   D(8,9,10,1)            39.1108         estimate D2E/DX2                !
 ! D90   D(8,9,10,23)          -78.671          estimate D2E/DX2                !
 ! D91   D(8,9,10,24)          160.8701         estimate D2E/DX2                !
 ! D92   D(21,9,10,1)          -78.1834         estimate D2E/DX2                !
 ! D93   D(21,9,10,23)         164.0348         estimate D2E/DX2                !
 ! D94   D(21,9,10,24)          43.5759         estimate D2E/DX2                !
 ! D95   D(22,9,10,1)          160.9268         estimate D2E/DX2                !
 ! D96   D(22,9,10,23)          43.145          estimate D2E/DX2                !
 ! D97   D(22,9,10,24)         -77.3138         estimate D2E/DX2                !
 --------------------------------------------------------------------------------
 Trust Radius=3.00D-01 FncErr=1.00D-07 GrdErr=1.00D-06 EigMax=2.50D+02 EigMin=1.00D-04
 Number of steps in this run=    144 maximum allowed number of steps=    144.
 GradGradGradGradGradGradGradGradGradGradGradGradGradGradGradGradGradGrad

                          Input orientation:                          
 ---------------------------------------------------------------------
 Center     Atomic      Atomic             Coordinates (Angstroms)
 Number     Number       Type             X           Y           Z
 ---------------------------------------------------------------------
      1          6           0       -0.303300    0.775000   -0.736000
      2          6           0        1.099500    1.118200   -0.175300
      3          6           0        1.132500    0.663200    1.260800
      4          6           0        1.132700   -0.663200    1.260800
      5          6           0        1.099600   -1.118000   -0.175400
      6          6           0        1.926800    0.000100   -0.825900
      7          6           0       -0.303300   -0.775100   -0.736100
      8          6           0       -1.517100   -1.200100    0.095200
      9          6           0       -2.460600   -0.000100    0.009400
     10          6           0       -1.517300    1.200000    0.095100
     11          1           0       -0.387700    1.167700   -1.751900
     12          1           0        1.415400    2.143200   -0.356600
     13          1           0        1.118500    1.327700    2.106100
     14          1           0        1.118900   -1.327700    2.106000
     15          1           0        1.415700   -2.143000   -0.356800
     16          1           0        2.967300    0.000200   -0.502400
     17          1           0        1.881800    0.000200   -1.914300
     18          1           0       -0.387800   -1.167800   -1.752000
     19          1           0       -1.975800   -2.115300   -0.278000
     20          1           0       -1.226500   -1.359900    1.133600
     21          1           0       -2.975300   -0.000200   -0.953400
     22          1           0       -3.210900   -0.000100    0.799600
     23          1           0       -1.226700    1.359900    1.133500
     24          1           0       -1.976000    2.115000   -0.278200
 ---------------------------------------------------------------------
                    Distance matrix (angstroms):
                    1          2          3          4          5
     1  C    0.000000
     2  C    1.549199   0.000000
     3  C    2.461957   1.506817   0.000000
     4  C    2.849162   2.288421   1.326400   0.000000
     5  C    2.421952   2.236200   2.288324   1.506854   0.000000
     6  C    2.362604   1.535530   2.329148   2.329137   1.535434
     7  C    1.550100   2.422175   2.849182   2.462159   1.549223
     8  C    2.462768   3.506320   3.442512   2.944202   2.631935
     9  C    2.410466   3.736177   3.862167   3.862319   3.736158
    10  C    1.531388   2.632005   2.944223   3.442800   3.506346
    11  H    1.092424   2.167921   3.412021   3.839293   3.149895
    12  H    2.229315   1.087790   2.210524   3.251428   3.281461
    13  H    3.225605   2.291078   1.075308   2.162965   3.344704
    14  H    3.810638   3.344717   2.162922   1.075227   2.291099
    15  H    3.407855   3.281516   3.251398   2.210549   1.087865
    16  H    3.369230   2.201271   2.629626   2.629588   2.201273
    17  H    2.600648   2.210438   3.329006   3.329040   2.210426
    18  H    2.194053   3.150213   3.839380   3.412258   2.168065
    19  H    3.370587   4.463579   4.444041   3.760222   3.234690
    20  H    2.984209   3.642043   3.110305   2.463208   2.680063
    21  H    2.790660   4.296540   4.713470   4.713588   4.296460
    22  H    3.378311   4.558571   4.417895   4.418062   4.558589
    23  H    2.165596   2.680034   2.463214   3.110612   3.642098
    24  H    2.191599   3.234640   3.760188   4.444202   4.463426
                    6          7          8          9         10
     6  C    0.000000
     7  C    2.362699   0.000000
     8  C    3.761563   1.531338   0.000000
     9  C    4.466207   2.410464   1.528906   0.000000
    10  C    3.761625   2.462866   2.400100   1.528856   0.000000
    11  H    2.752758   2.193956   3.208395   2.960211   2.165283
    12  H    2.252698   3.407994   4.470049   4.444217   3.113581
    13  H    3.318508   3.810693   4.168918   4.355360   3.317811
    14  H    3.318402   3.225764   3.317845   4.355580   4.169237
    15  H    2.252589   2.229345   3.113628   4.444302   4.470162
    16  H    1.089630   3.369352   4.680565   5.451976   4.680616
    17  H    1.089330   2.600751   4.126903   4.749427   4.126874
    18  H    2.753003   1.092431   2.165297   2.960161   3.208430
    19  H    4.472739   2.191631   1.089621   2.188995   3.367587
    20  H    3.953801   2.165656   1.090073   2.153110   2.777793
    21  H    4.903758   2.790569   2.160016   1.091742   2.159999
    22  H    5.388711   3.378334   2.192062   1.089663   2.191995
    23  H    3.953842   2.984342   2.777769   2.153070   1.090088
    24  H    4.472653   3.370501   3.367478   2.188881   1.089488
                   11         12         13         14         15
    11  H    0.000000
    12  H    2.479845   0.000000
    13  H    4.144684   2.611146   0.000000
    14  H    4.835314   4.266082   2.655400   0.000000
    15  H    4.019862   4.286200   4.266141   2.611166   0.000000
    16  H    3.765678   2.649925   3.461877   3.461741   2.649900
    17  H    2.557354   2.690057   4.302151   4.302110   2.690049
    18  H    2.335500   4.020123   4.835431   4.144862   2.479962
    19  H    3.933514   5.444377   5.207002   3.985089   3.392528
    20  H    3.926634   4.633793   3.697022   2.539193   3.133011
    21  H    2.949113   4.922254   5.280441   5.280593   4.922236
    22  H    3.980498   5.228115   4.713141   4.713425   5.228261
    23  H    3.011045   3.132834   2.539085   3.697403   4.633959
    24  H    2.364713   3.392423   3.985054   5.207206   5.444297
                   16         17         18         19         20
    16  H    0.000000
    17  H    1.780947   0.000000
    18  H    3.765955   2.557665   0.000000
    19  H    5.381443   4.694028   2.364778   0.000000
    20  H    4.702587   4.560822   3.011147   1.767680   0.000000
    21  H    5.959689   4.951237   2.948933   2.434915   3.043461
    22  H    6.313902   5.770689   3.980462   2.675961   2.428674
    23  H    4.702615   4.560772   3.926720   3.824983   2.719800
    24  H    5.381344   4.693807   3.933350   4.230300   3.824900
                   21         22         23         24
    21  H    0.000000
    22  H    1.768761   0.000000
    23  H    3.043456   2.428608   0.000000
    24  H    2.434865   2.675870   1.767632   0.000000
 Stoichiometry    C10H14
 Framework group  C1[X(C10H14)]
 Deg. of freedom    66
 Full point group                 C1      NOp   1
 Largest Abelian subgroup         C1      NOp   1
 Largest concise Abelian subgroup C1      NOp   1
                         Standard orientation:                         
 ---------------------------------------------------------------------
 Center     Atomic      Atomic             Coordinates (Angstroms)
 Number     Number       Type             X           Y           Z
 ---------------------------------------------------------------------
      1          6           0       -0.309799    0.775016   -0.718113
      2          6           0        1.114793    1.118165   -0.215315
      3          6           0        1.206548    0.663154    1.218227
      4          6           0        1.206703   -0.663246    1.218211
      5          6           0        1.114813   -1.118035   -0.215432
      6          6           0        1.914724    0.000041   -0.899248
      7          6           0       -0.309855   -0.775084   -0.718221
      8          6           0       -1.488616   -1.200049    0.162075
      9          6           0       -2.434797   -0.000017    0.114983
     10          6           0       -1.488739    1.200051    0.161997
     11          1           0       -0.435708    1.167726   -1.729703
     12          1           0        1.423040    2.143155   -0.409391
     13          1           0        1.227191    1.327648    2.063395
     14          1           0        1.227496   -1.327752    2.063264
     15          1           0        1.423186   -2.143045   -0.409627
     16          1           0        2.967597    0.000104   -0.618620
     17          1           0        1.825200    0.000150   -1.984893
     18          1           0       -0.435891   -1.167774   -1.729812
     19          1           0       -1.962243   -2.115231   -0.192037
     20          1           0       -1.155751   -1.359866    1.187706
     21          1           0       -2.988485   -0.000093   -0.825936
     22          1           0       -3.152115    0.000003    0.935240
     23          1           0       -1.155862    1.359934    1.187629
     24          1           0       -1.962307    2.115069   -0.192205
 ---------------------------------------------------------------------
 Rotational constants (GHZ):           2.5117636           1.3736282           1.2559161
 Standard basis: def2TZVP (5D, 7F)
 There are   444 symmetry adapted cartesian basis functions of A   symmetry.
 There are   394 symmetry adapted basis functions of A   symmetry.
   394 basis functions,   622 primitive gaussians,   444 cartesian basis functions
    37 alpha electrons       37 beta electrons
       nuclear repulsion energy       562.8811421871 Hartrees.
 NAtoms=   24 NActive=   24 NUniq=   24 SFac= 1.00D+00 NAtFMM=   60 NAOKFM=F Big=F
 Integral buffers will be    131072 words long.
 Raffenetti 2 integral format.
 Two-electron integral symmetry is turned on.
 One-electron integrals computed using PRISM.
   1 Symmetry operations used in ECPInt.
 ECPInt:  NShTT=   13861 NPrTT=   40732 LenC2=   13696 LenP2D=   32639.
 LDataN:  DoStor=T MaxTD1= 6 Len=  172
 NBasis=   394 RedAO= T EigKep=  1.80D-05  NBF=   394
 NBsUse=   394 1.00D-06 EigRej= -1.00D+00 NBFU=   394
 ExpMin= 9.52D-02 ExpMax= 1.36D+04 ExpMxC= 4.63D+02 IAcc=3 IRadAn=         5 AccDes= 0.00D+00
 Harris functional with IExCor=  402 and IRadAn=       5 diagonalized for initial guess.
 HarFok:  IExCor=  402 AccDes= 0.00D+00 IRadAn=         5 IDoV= 1 UseB2=F ITyADJ=14
 ICtDFT=  3500011 ScaDFX=  1.000000  1.000000  1.000000  1.000000
 FoFCou: FMM=F IPFlag=           0 FMFlag=      100000 FMFlg1=           0
         NFxFlg=           0 DoJE=T BraDBF=F KetDBF=T FulRan=T
         wScrn=  0.000000 ICntrl=       500 IOpCl=  0 I1Cent=   200000004 NGrid=           0
         NMat0=    1 NMatS0=      1 NMatT0=    0 NMatD0=    1 NMtDS0=    0 NMtDT0=    0
 Petite list used in FoFCou.
 Requested convergence on RMS density matrix=1.00D-08 within 128 cycles.
 Requested convergence on MAX density matrix=1.00D-06.
 Requested convergence on             energy=1.00D-06.
 No special actions if energy rises.
 Integral accuracy reduced to 1.0D-05 until final iterations.
 Initial convergence to 1.0D-05 achieved.  Increase integral accuracy.
 SCF Done:  E(RB3LYP) =  -389.592708322     A.U. after   14 cycles
            NFock= 14  Conv=0.25D-08     -V/T= 2.0047

 **********************************************************************

            Population analysis using the SCF Density.

 **********************************************************************

 Orbital symmetries:
       Occupied  (A) (A) (A) (A) (A) (A) (A) (A) (A) (A) (A) (A)
                 (A) (A) (A) (A) (A) (A) (A) (A) (A) (A) (A) (A)
                 (A) (A) (A) (A) (A) (A) (A) (A) (A) (A) (A) (A)
                 (A)
       Virtual   (A) (A) (A) (A) (A) (A) (A) (A) (A) (A) (A) (A)
                 (A) (A) (A) (A) (A) (A) (A) (A) (A) (A) (A) (A)
                 (A) (A) (A) (A) (A) (A) (A) (A) (A) (A) (A) (A)
                 (A) (A) (A) (A) (A) (A) (A) (A) (A) (A) (A) (A)
                 (A) (A) (A) (A) (A) (A) (A) (A) (A) (A) (A) (A)
                 (A) (A) (A) (A) (A) (A) (A) (A) (A) (A) (A) (A)
                 (A) (A) (A) (A) (A) (A) (A) (A) (A) (A) (A) (A)
                 (A) (A) (A) (A) (A) (A) (A) (A) (A) (A) (A) (A)
                 (A) (A) (A) (A) (A) (A) (A) (A) (A) (A) (A) (A)
                 (A) (A) (A) (A) (A) (A) (A) (A) (A) (A) (A) (A)
                 (A) (A) (A) (A) (A) (A) (A) (A) (A) (A) (A) (A)
                 (A) (A) (A) (A) (A) (A) (A) (A) (A) (A) (A) (A)
                 (A) (A) (A) (A) (A) (A) (A) (A) (A) (A) (A) (A)
                 (A) (A) (A) (A) (A) (A) (A) (A) (A) (A) (A) (A)
                 (A) (A) (A) (A) (A) (A) (A) (A) (A) (A) (A) (A)
                 (A) (A) (A) (A) (A) (A) (A) (A) (A) (A) (A) (A)
                 (A) (A) (A) (A) (A) (A) (A) (A) (A) (A) (A) (A)
                 (A) (A) (A) (A) (A) (A) (A) (A) (A) (A) (A) (A)
                 (A) (A) (A) (A) (A) (A) (A) (A) (A) (A) (A) (A)
                 (A) (A) (A) (A) (A) (A) (A) (A) (A) (A) (A) (A)
                 (A) (A) (A) (A) (A) (A) (A) (A) (A) (A) (A) (A)
                 (A) (A) (A) (A) (A) (A) (A) (A) (A) (A) (A) (A)
                 (A) (A) (A) (A) (A) (A) (A) (A) (A) (A) (A) (A)
                 (A) (A) (A) (A) (A) (A) (A) (A) (A) (A) (A) (A)
                 (A) (A) (A) (A) (A) (A) (A) (A) (A) (A) (A) (A)
                 (A) (A) (A) (A) (A) (A) (A) (A) (A) (A) (A) (A)
                 (A) (A) (A) (A) (A) (A) (A) (A) (A) (A) (A) (A)
                 (A) (A) (A) (A) (A) (A) (A) (A) (A) (A) (A) (A)
                 (A) (A) (A) (A) (A) (A) (A) (A) (A) (A) (A) (A)
                 (A) (A) (A) (A) (A) (A) (A) (A) (A)
 The electronic state is 1-A.
 Alpha  occ. eigenvalues --  -10.16971 -10.16970 -10.16313 -10.16294 -10.16147
 Alpha  occ. eigenvalues --  -10.16052 -10.15958 -10.15667 -10.15385 -10.15382
 Alpha  occ. eigenvalues --   -0.89399  -0.81372  -0.73671  -0.72920  -0.68004
 Alpha  occ. eigenvalues --   -0.66862  -0.56875  -0.56214  -0.56021  -0.52212
 Alpha  occ. eigenvalues --   -0.49492  -0.48458  -0.47301  -0.42037  -0.41773
 Alpha  occ. eigenvalues --   -0.39637  -0.39510  -0.36374  -0.34832  -0.34651
 Alpha  occ. eigenvalues --   -0.33290  -0.32724  -0.31922  -0.31295  -0.30562
 Alpha  occ. eigenvalues --   -0.29334  -0.24261
 Alpha virt. eigenvalues --    0.00409   0.02962   0.05135   0.05636   0.06783
 Alpha virt. eigenvalues --    0.08482   0.08663   0.09201   0.09837   0.10526
 Alpha virt. eigenvalues --    0.11836   0.12256   0.12937   0.13841   0.14665
 Alpha virt. eigenvalues --    0.15061   0.15648   0.16515   0.17672   0.17752
 Alpha virt. eigenvalues --    0.19073   0.19992   0.20806   0.21446   0.22688
 Alpha virt. eigenvalues --    0.23147   0.23770   0.24198   0.25364   0.26586
 Alpha virt. eigenvalues --    0.27239   0.29708   0.30956   0.32011   0.32708
 Alpha virt. eigenvalues --    0.34435   0.36593   0.36615   0.38436   0.38834
 Alpha virt. eigenvalues --    0.40116   0.40137   0.40479   0.40866   0.41459
 Alpha virt. eigenvalues --    0.42023   0.42593   0.43087   0.43707   0.43754
 Alpha virt. eigenvalues --    0.44106   0.44329   0.44489   0.45382   0.46039
 Alpha virt. eigenvalues --    0.46351   0.46374   0.46880   0.47076   0.48186
 Alpha virt. eigenvalues --    0.48768   0.48983   0.50830   0.51592   0.52847
 Alpha virt. eigenvalues --    0.53268   0.53439   0.57208   0.58237   0.59140
 Alpha virt. eigenvalues --    0.60061   0.63472   0.64670   0.65340   0.67026
 Alpha virt. eigenvalues --    0.73310   0.73696   0.74672   0.75249   0.76461
 Alpha virt. eigenvalues --    0.79111   0.81618   0.82424   0.85104   0.85792
 Alpha virt. eigenvalues --    0.88423   0.89269   0.89834   0.90414   0.90423
 Alpha virt. eigenvalues --    0.92785   0.94793   0.94901   0.97697   1.00520
 Alpha virt. eigenvalues --    1.01507   1.02961   1.03167   1.05773   1.06744
 Alpha virt. eigenvalues --    1.07382   1.07963   1.10153   1.11324   1.11593
 Alpha virt. eigenvalues --    1.11943   1.12592   1.16003   1.17346   1.17530
 Alpha virt. eigenvalues --    1.18243   1.21421   1.22292   1.23022   1.24398
 Alpha virt. eigenvalues --    1.25591   1.25648   1.27395   1.27455   1.29056
 Alpha virt. eigenvalues --    1.31206   1.32117   1.32243   1.34632   1.38017
 Alpha virt. eigenvalues --    1.39646   1.39669   1.41679   1.42546   1.47141
 Alpha virt. eigenvalues --    1.52198   1.53160   1.54185   1.54240   1.55227
 Alpha virt. eigenvalues --    1.58790   1.59659   1.60104   1.62208   1.62537
 Alpha virt. eigenvalues --    1.63870   1.65505   1.65625   1.68446   1.69386
 Alpha virt. eigenvalues --    1.72191   1.74876   1.76949   1.77143   1.78020
 Alpha virt. eigenvalues --    1.82004   1.84581   1.85644   1.86520   1.90196
 Alpha virt. eigenvalues --    1.92375   1.93668   1.95354   1.95596   1.97709
 Alpha virt. eigenvalues --    1.98195   2.01162   2.01753   2.01791   2.04406
 Alpha virt. eigenvalues --    2.05415   2.08134   2.09212   2.10320   2.13018
 Alpha virt. eigenvalues --    2.14057   2.15192   2.16427   2.21651   2.22989
 Alpha virt. eigenvalues --    2.23004   2.24771   2.28590   2.29172   2.30924
 Alpha virt. eigenvalues --    2.33172   2.35824   2.36382   2.36471   2.39710
 Alpha virt. eigenvalues --    2.40682   2.40944   2.43550   2.45056   2.45878
 Alpha virt. eigenvalues --    2.48440   2.49202   2.50510   2.51159   2.52956
 Alpha virt. eigenvalues --    2.53870   2.55648   2.58602   2.59315   2.59509
 Alpha virt. eigenvalues --    2.60511   2.61332   2.63117   2.65245   2.65695
 Alpha virt. eigenvalues --    2.66042   2.66965   2.67803   2.68765   2.70671
 Alpha virt. eigenvalues --    2.73759   2.74482   2.75366   2.78111   2.78256
 Alpha virt. eigenvalues --    2.80463   2.81983   2.82285   2.84978   2.86822
 Alpha virt. eigenvalues --    2.87001   2.88585   2.90251   2.90679   2.91875
 Alpha virt. eigenvalues --    2.93628   2.93869   2.94685   2.95752   2.97968
 Alpha virt. eigenvalues --    2.99844   3.00496   3.01261   3.04463   3.05541
 Alpha virt. eigenvalues --    3.07158   3.07387   3.09557   3.10672   3.12010
 Alpha virt. eigenvalues --    3.14460   3.16319   3.17690   3.18879   3.20183
 Alpha virt. eigenvalues --    3.20974   3.24277   3.25184   3.25597   3.25949
 Alpha virt. eigenvalues --    3.26914   3.28793   3.29618   3.31502   3.34192
 Alpha virt. eigenvalues --    3.34690   3.35804   3.37050   3.37853   3.39105
 Alpha virt. eigenvalues --    3.41065   3.44974   3.45351   3.45864   3.48466
 Alpha virt. eigenvalues --    3.48512   3.50990   3.52937   3.53442   3.53904
 Alpha virt. eigenvalues --    3.57109   3.57418   3.58038   3.59280   3.62321
 Alpha virt. eigenvalues --    3.66238   3.67065   3.68340   3.69637   3.71050
 Alpha virt. eigenvalues --    3.73099   3.73980   3.74585   3.77994   3.79377
 Alpha virt. eigenvalues --    3.79765   3.82244   3.84032   3.84646   3.87442
 Alpha virt. eigenvalues --    3.90497   3.92049   3.93914   3.97726   3.98364
 Alpha virt. eigenvalues --    4.00923   4.02657   4.04117   4.05447   4.08019
 Alpha virt. eigenvalues --    4.08796   4.09001   4.14153   4.14441   4.18139
 Alpha virt. eigenvalues --    4.21267   4.21644   4.23601   4.26074   4.29416
 Alpha virt. eigenvalues --    4.31147   4.31690   4.32653   4.34022   4.35024
 Alpha virt. eigenvalues --    4.37284   4.39167   4.42221   4.44225   4.44334
 Alpha virt. eigenvalues --    4.48047   4.50071   4.50857   4.52005   4.52894
 Alpha virt. eigenvalues --    4.57397   4.60462   4.61316   4.62320   4.68435
 Alpha virt. eigenvalues --    4.70143   4.71699   4.81053   4.81253   4.87263
 Alpha virt. eigenvalues --    4.90119   4.93804   4.95076   4.99139   4.99467
 Alpha virt. eigenvalues --    5.05478   5.07379   5.08282   5.08505   5.15402
 Alpha virt. eigenvalues --    5.24393   5.32933  22.33792  22.40944  22.47672
 Alpha virt. eigenvalues --   22.54209  22.57603  22.65797  22.76122  22.79465
 Alpha virt. eigenvalues --   22.84866  22.93630
          Condensed to atoms (all electrons):
               1          2          3          4          5          6
     1  C    4.977711   0.313135   0.039707  -0.046665  -0.030137  -0.069596
     2  C    0.313135   4.915949   0.272751  -0.047346  -0.061659   0.336220
     3  C    0.039707   0.272751   5.162895   0.565531  -0.047374  -0.049460
     4  C   -0.046665  -0.047346   0.565531   5.162961   0.272751  -0.049393
     5  C   -0.030137  -0.061659  -0.047374   0.272751   4.915901   0.336181
     6  C   -0.069596   0.336220  -0.049460  -0.049393   0.336181   4.988514
     7  C    0.364651  -0.030141  -0.046624   0.039686   0.313144  -0.069569
     8  C   -0.054895   0.016463  -0.022752  -0.044674  -0.027437   0.009847
     9  C   -0.094726   0.010651   0.009747   0.009743   0.010659  -0.003806
    10  C    0.355694  -0.027452  -0.044665  -0.022745   0.016477   0.009848
    11  H    0.392073  -0.041473   0.004052   0.005643  -0.006202   0.001345
    12  H   -0.049787   0.430386  -0.058453   0.013101   0.007245  -0.041936
    13  H    0.005469  -0.058266   0.436905  -0.048645   0.010181   0.008502
    14  H   -0.001851   0.010178  -0.048646   0.436932  -0.058254   0.008502
    15  H    0.012107   0.007249   0.013107  -0.058457   0.430351  -0.041952
    16  H    0.008445  -0.018796   0.000062   0.000040  -0.018761   0.373496
    17  H    0.001371  -0.041440   0.009094   0.009094  -0.041438   0.405898
    18  H   -0.027197  -0.006190   0.005636   0.004050  -0.041447   0.001337
    19  H    0.010435  -0.000792   0.000514   0.000372   0.004902  -0.000729
    20  H    0.001586  -0.003974   0.007539   0.011293  -0.019742   0.002154
    21  H    0.001041  -0.000815  -0.000040  -0.000040  -0.000816   0.000289
    22  H    0.010685  -0.000450   0.000226   0.000226  -0.000450   0.000159
    23  H   -0.031441  -0.019731   0.011294   0.007544  -0.003978   0.002154
    24  H   -0.043328   0.004899   0.000373   0.000514  -0.000792  -0.000729
               7          8          9         10         11         12
     1  C    0.364651  -0.054895  -0.094726   0.355694   0.392073  -0.049787
     2  C   -0.030141   0.016463   0.010651  -0.027452  -0.041473   0.430386
     3  C   -0.046624  -0.022752   0.009747  -0.044665   0.004052  -0.058453
     4  C    0.039686  -0.044674   0.009743  -0.022745   0.005643   0.013101
     5  C    0.313144  -0.027437   0.010659   0.016477  -0.006202   0.007245
     6  C   -0.069569   0.009847  -0.003806   0.009848   0.001345  -0.041936
     7  C    4.977602   0.355683  -0.094716  -0.054901  -0.027203   0.012101
     8  C    0.355683   5.017053   0.333188  -0.063613   0.004757  -0.000682
     9  C   -0.094716   0.333188   4.952085   0.333168   0.006139  -0.000437
    10  C   -0.054901  -0.063613   0.333168   5.017007  -0.056938  -0.001996
    11  H   -0.027203   0.004757   0.006139  -0.056938   0.678341  -0.002794
    12  H    0.012101  -0.000682  -0.000437  -0.001996  -0.002794   0.626686
    13  H   -0.001850  -0.000168   0.000194  -0.001192  -0.000605  -0.003506
    14  H    0.005461  -0.001193   0.000194  -0.000168   0.000155  -0.000229
    15  H   -0.049791  -0.001995  -0.000437  -0.000682  -0.000667  -0.000304
    16  H    0.008441  -0.000315   0.000173  -0.000316  -0.000357  -0.002520
    17  H    0.001372   0.000680  -0.000108   0.000680   0.000781  -0.002213
    18  H    0.392093  -0.056935   0.006137   0.004752  -0.016910  -0.000666
    19  H   -0.043333   0.407179  -0.037109   0.010552  -0.000340   0.000025
    20  H   -0.031411   0.384988  -0.032934  -0.002450  -0.000317   0.000001
    21  H    0.001049  -0.038798   0.401697  -0.038801   0.001727   0.000004
    22  H    0.010680  -0.036539   0.403691  -0.036545  -0.000400   0.000021
    23  H    0.001587  -0.002452  -0.032924   0.384976   0.009033   0.001619
    24  H    0.010431   0.010551  -0.037117   0.407222  -0.011676   0.000975
              13         14         15         16         17         18
     1  C    0.005469  -0.001851   0.012107   0.008445   0.001371  -0.027197
     2  C   -0.058266   0.010178   0.007249  -0.018796  -0.041440  -0.006190
     3  C    0.436905  -0.048646   0.013107   0.000062   0.009094   0.005636
     4  C   -0.048645   0.436932  -0.058457   0.000040   0.009094   0.004050
     5  C    0.010181  -0.058254   0.430351  -0.018761  -0.041438  -0.041447
     6  C    0.008502   0.008502  -0.041952   0.373496   0.405898   0.001337
     7  C   -0.001850   0.005461  -0.049791   0.008441   0.001372   0.392093
     8  C   -0.000168  -0.001193  -0.001995  -0.000315   0.000680  -0.056935
     9  C    0.000194   0.000194  -0.000437   0.000173  -0.000108   0.006137
    10  C   -0.001192  -0.000168  -0.000682  -0.000316   0.000680   0.004752
    11  H   -0.000605   0.000155  -0.000667  -0.000357   0.000781  -0.016910
    12  H   -0.003506  -0.000229  -0.000304  -0.002520  -0.002213  -0.000666
    13  H    0.555199  -0.007374  -0.000229  -0.000052  -0.000272   0.000155
    14  H   -0.007374   0.555160  -0.003506  -0.000053  -0.000272  -0.000604
    15  H   -0.000229  -0.003506   0.626768  -0.002521  -0.002215  -0.002795
    16  H   -0.000052  -0.000053  -0.002521   0.602091  -0.029572  -0.000357
    17  H   -0.000272  -0.000272  -0.002215  -0.029572   0.610117   0.000784
    18  H    0.000155  -0.000604  -0.002795  -0.000357   0.000784   0.678267
    19  H   -0.000001  -0.000050   0.000975   0.000018  -0.000065  -0.011675
    20  H    0.000223  -0.001502   0.001620  -0.000105  -0.000069   0.009030
    21  H   -0.000005  -0.000005   0.000004  -0.000005   0.000020   0.001727
    22  H    0.000019   0.000019   0.000021  -0.000005  -0.000000  -0.000399
    23  H   -0.001504   0.000224   0.000001  -0.000105  -0.000069  -0.000317
    24  H   -0.000050  -0.000001   0.000025   0.000018  -0.000065  -0.000340
              19         20         21         22         23         24
     1  C    0.010435   0.001586   0.001041   0.010685  -0.031441  -0.043328
     2  C   -0.000792  -0.003974  -0.000815  -0.000450  -0.019731   0.004899
     3  C    0.000514   0.007539  -0.000040   0.000226   0.011294   0.000373
     4  C    0.000372   0.011293  -0.000040   0.000226   0.007544   0.000514
     5  C    0.004902  -0.019742  -0.000816  -0.000450  -0.003978  -0.000792
     6  C   -0.000729   0.002154   0.000289   0.000159   0.002154  -0.000729
     7  C   -0.043333  -0.031411   0.001049   0.010680   0.001587   0.010431
     8  C    0.407179   0.384988  -0.038798  -0.036539  -0.002452   0.010551
     9  C   -0.037109  -0.032934   0.401697   0.403691  -0.032924  -0.037117
    10  C    0.010552  -0.002450  -0.038801  -0.036545   0.384976   0.407222
    11  H   -0.000340  -0.000317   0.001727  -0.000400   0.009033  -0.011676
    12  H    0.000025   0.000001   0.000004   0.000021   0.001619   0.000975
    13  H   -0.000001   0.000223  -0.000005   0.000019  -0.001504  -0.000050
    14  H   -0.000050  -0.001502  -0.000005   0.000019   0.000224  -0.000001
    15  H    0.000975   0.001620   0.000004   0.000021   0.000001   0.000025
    16  H    0.000018  -0.000105  -0.000005  -0.000005  -0.000105   0.000018
    17  H   -0.000065  -0.000069   0.000020  -0.000000  -0.000069  -0.000065
    18  H   -0.011675   0.009030   0.001727  -0.000399  -0.000317  -0.000340
    19  H    0.614980  -0.029671  -0.008913   0.000952  -0.000131  -0.000344
    20  H   -0.029671   0.620561   0.007976  -0.007328   0.002301  -0.000131
    21  H   -0.008913   0.007976   0.626958  -0.029529   0.007977  -0.008913
    22  H    0.000952  -0.007328  -0.029529   0.609035  -0.007332   0.000952
    23  H   -0.000131   0.002301   0.007977  -0.007332   0.620607  -0.029673
    24  H   -0.000344  -0.000131  -0.008913   0.000952  -0.029673   0.614929
 Mulliken charges:
               1
     1  C   -0.044487
     2  C    0.040642
     3  C   -0.221420
     4  C   -0.221516
     5  C    0.040696
     6  C   -0.157277
     7  C   -0.044441
     8  C   -0.187942
     9  C   -0.143154
    10  C   -0.187915
    11  H    0.061835
    12  H    0.073357
    13  H    0.106872
    14  H    0.106883
    15  H    0.073322
    16  H    0.081057
    17  H    0.077906
    18  H    0.061866
    19  H    0.082250
    20  H    0.080360
    21  H    0.076213
    22  H    0.082289
    23  H    0.080338
    24  H    0.082268
 Sum of Mulliken charges =  -0.00000
 Mulliken charges with hydrogens summed into heavy atoms:
               1
     1  C    0.017348
     2  C    0.113999
     3  C   -0.114549
     4  C   -0.114633
     5  C    0.114018
     6  C    0.001686
     7  C    0.017424
     8  C   -0.025333
     9  C    0.015349
    10  C   -0.025309
 Electronic spatial extent (au):  <R**2>=           1184.8099
 Charge=             -0.0000 electrons
 Dipole moment (field-independent basis, Debye):
    X=             -0.0968    Y=              0.0003    Z=             -0.2379  Tot=              0.2569
 Quadrupole moment (field-independent basis, Debye-Ang):
   XX=            -64.8232   YY=            -61.3777   ZZ=            -61.1187
   XY=              0.0002   XZ=              0.0072   YZ=             -0.0002
 Traceless Quadrupole moment (field-independent basis, Debye-Ang):
   XX=             -2.3834   YY=              1.0622   ZZ=              1.3211
   XY=              0.0002   XZ=              0.0072   YZ=             -0.0002
 Octapole moment (field-independent basis, Debye-Ang**2):
  XXX=             -2.9203  YYY=              0.0036  ZZZ=              0.8712  XYY=              2.3639
  XXY=              0.0017  XXZ=             -2.8495  XZZ=             -0.9625  YZZ=             -0.0009
  YYZ=              0.7434  XYZ=             -0.0012
 Hexadecapole moment (field-independent basis, Debye-Ang**3):
 XXXX=           -937.7755 YYYY=           -426.1663 ZZZZ=           -322.9885 XXXY=             -0.0018
 XXXZ=             -6.3335 YYYX=              0.0009 YYYZ=             -0.0025 ZZZX=              2.3331
 ZZZY=             -0.0009 XXYY=           -223.2913 XXZZ=           -210.1978 YYZZ=           -121.8051
 XXYZ=             -0.0027 YYXZ=              5.0340 ZZXY=             -0.0010
 N-N= 5.628811421871D+02 E-N=-2.028709545565D+03  KE= 3.877665245293D+02
   1 Symmetry operations used in ECPInt.
 ECPInt:  NShTT=   13861 NPrTT=   40732 LenC2=   13696 LenP2D=   32639.
 LDataN:  DoStor=T MaxTD1= 7 Len=  274
 Calling FoFJK, ICntrl=      2127 FMM=F ISym2X=0 I1Cent= 0 IOpClX= 0 NMat=1 NMatS=1 NMatT=0.
 ***** Axes restored to original set *****
 -------------------------------------------------------------------
 Center     Atomic                   Forces (Hartrees/Bohr)
 Number     Number              X              Y              Z
 -------------------------------------------------------------------
      1        6          -0.003189593    0.008000771   -0.002099622
      2        6           0.003109051    0.006828602   -0.002234662
      3        6           0.005465968    0.005474793    0.003493484
      4        6           0.005430018   -0.005420032    0.003404039
      5        6           0.003148438   -0.006960260   -0.002237591
      6        6           0.007181913    0.000042567   -0.002686502
      7        6          -0.003128200   -0.007948880   -0.002029591
      8        6          -0.003462282   -0.002729069   -0.003822504
      9        6          -0.002812494   -0.000015573    0.003845908
     10        6          -0.003376236    0.002654918   -0.003783455
     11        1           0.000044776   -0.000290009   -0.000140313
     12        1           0.000728790    0.000877880   -0.000039095
     13        1          -0.001365206    0.001029047    0.004450959
     14        1          -0.001371207   -0.001064056    0.004490950
     15        1           0.000715997   -0.000839249   -0.000030936
     16        1           0.001103663   -0.000006742   -0.000387007
     17        1          -0.000353507   -0.000004170   -0.002559414
     18        1           0.000053311    0.000296729   -0.000130111
     19        1          -0.000348513   -0.002012521    0.001115540
     20        1          -0.001068370   -0.001386048    0.000573715
     21        1          -0.002105592    0.000000969   -0.000588449
     22        1          -0.002939131   -0.000003427   -0.000263158
     23        1          -0.001080732    0.001391342    0.000570342
     24        1          -0.000380863    0.002082420    0.001087474
 -------------------------------------------------------------------
 Cartesian Forces:  Max     0.008000771 RMS     0.003025891

 GradGradGradGradGradGradGradGradGradGradGradGradGradGradGradGradGradGrad
 Berny optimization.
 FormGI is forming the generalized inverse of G from B-inverse, IUseBI=4.
 Internal  Forces:  Max     0.012081158 RMS     0.002534493
 Search for a local minimum.
 Step number   1 out of a maximum of  144
 All quantities printed in internal units (Hartrees-Bohrs-Radians)
 Mixed Optimization -- RFO/linear search
 Second derivative matrix not updated -- first step.
 ITU=  0
     Eigenvalues ---    0.00414   0.00558   0.01306   0.01547   0.01693
     Eigenvalues ---    0.01835   0.02120   0.02263   0.03101   0.03185
     Eigenvalues ---    0.03657   0.04161   0.04253   0.04420   0.04749
     Eigenvalues ---    0.04767   0.04868   0.05037   0.05066   0.05356
     Eigenvalues ---    0.05424   0.05668   0.05687   0.06020   0.06407
     Eigenvalues ---    0.06801   0.06855   0.06914   0.06923   0.07525
     Eigenvalues ---    0.08118   0.08734   0.09571   0.10903   0.11500
     Eigenvalues ---    0.12672   0.15800   0.15985   0.15995   0.18513
     Eigenvalues ---    0.20841   0.22727   0.24596   0.25747   0.26541
     Eigenvalues ---    0.27494   0.28124   0.28175   0.28453   0.29326
     Eigenvalues ---    0.31210   0.34533   0.34534   0.34612   0.34803
     Eigenvalues ---    0.34804   0.34852   0.34855   0.34856   0.34872
     Eigenvalues ---    0.34890   0.35061   0.35069   0.36567   0.36577
     Eigenvalues ---    0.52949
 RFO step:  Lambda=-5.58927471D-03 EMin= 4.13812898D-03
 Linear search not attempted -- first point.
 Iteration  1 RMS(Cart)=  0.04295025 RMS(Int)=  0.00049485
 Iteration  2 RMS(Cart)=  0.00057320 RMS(Int)=  0.00014886
 Iteration  3 RMS(Cart)=  0.00000017 RMS(Int)=  0.00014886
 Variable       Old X    -DE/DX   Delta X   Delta X   Delta X     New X
                                 (Linear)    (Quad)   (Total)
    R1        2.92756   0.01208   0.00000   0.04209   0.04216   2.96972
    R2        2.92926   0.01069   0.00000   0.03163   0.03229   2.96156
    R3        2.89390   0.00710   0.00000   0.02289   0.02299   2.91689
    R4        2.06438   0.00002   0.00000   0.00006   0.00006   2.06445
    R5        2.84747   0.00813   0.00000   0.02527   0.02527   2.87274
    R6        2.90173   0.00687   0.00000   0.02514   0.02493   2.92666
    R7        2.05563   0.00105   0.00000   0.00293   0.00293   2.05856
    R8        2.50653   0.00810   0.00000   0.01340   0.01338   2.51992
    R9        2.03204   0.00415   0.00000   0.01118   0.01118   2.04322
   R10        2.84754   0.00811   0.00000   0.02523   0.02522   2.87276
   R11        2.03189   0.00420   0.00000   0.01132   0.01132   2.04321
   R12        2.90155   0.00689   0.00000   0.02523   0.02501   2.92656
   R13        2.92761   0.01207   0.00000   0.04205   0.04212   2.96973
   R14        2.05577   0.00100   0.00000   0.00282   0.00282   2.05859
   R15        2.05910   0.00094   0.00000   0.00265   0.00265   2.06175
   R16        2.05854   0.00258   0.00000   0.00726   0.00726   2.06580
   R17        2.89381   0.00712   0.00000   0.02295   0.02305   2.91686
   R18        2.06440   0.00001   0.00000   0.00003   0.00003   2.06442
   R19        2.88921   0.00578   0.00000   0.02170   0.02142   2.91064
   R20        2.05909   0.00145   0.00000   0.00411   0.00411   2.06319
   R21        2.05994   0.00047   0.00000   0.00132   0.00132   2.06126
   R22        2.88912   0.00580   0.00000   0.02178   0.02150   2.91062
   R23        2.06309   0.00151   0.00000   0.00429   0.00429   2.06738
   R24        2.05917   0.00184   0.00000   0.00518   0.00518   2.06435
   R25        2.05997   0.00046   0.00000   0.00130   0.00130   2.06127
   R26        2.05883   0.00154   0.00000   0.00433   0.00433   2.06317
    A1        1.79421  -0.00078   0.00000  -0.00284  -0.00303   1.79118
    A2        2.04871   0.00447   0.00000   0.04649   0.04618   2.09489
    A3        1.90382  -0.00163   0.00000  -0.01596  -0.01590   1.88791
    A4        1.85205  -0.00091   0.00000   0.00091   0.00064   1.85269
    A5        1.93844   0.00059   0.00000  -0.01248  -0.01271   1.92573
    A6        1.92163  -0.00166   0.00000  -0.01666  -0.01654   1.90509
    A7        1.87327   0.00323   0.00000   0.02989   0.02986   1.90312
    A8        1.74487  -0.00036   0.00000  -0.00775  -0.00756   1.73731
    A9        1.99477  -0.00106   0.00000  -0.00312  -0.00333   1.99144
   A10        1.74380  -0.00104   0.00000  -0.00863  -0.00853   1.73527
   A11        2.02308  -0.00068   0.00000  -0.00421  -0.00437   2.01871
   A12        2.04771   0.00020   0.00000  -0.00475  -0.00490   2.04281
   A13        1.87755  -0.00026   0.00000   0.00107   0.00095   1.87850
   A14        2.16799   0.00206   0.00000   0.01071   0.01052   2.17850
   A15        2.23695  -0.00183   0.00000  -0.01293  -0.01309   2.22386
   A16        1.87739  -0.00024   0.00000   0.00118   0.00106   1.87846
   A17        2.23700  -0.00183   0.00000  -0.01297  -0.01312   2.22388
   A18        2.16808   0.00205   0.00000   0.01064   0.01045   2.17853
   A19        1.74383  -0.00104   0.00000  -0.00861  -0.00851   1.73532
   A20        1.87344   0.00321   0.00000   0.02967   0.02963   1.90307
   A21        2.02298  -0.00068   0.00000  -0.00412  -0.00428   2.01870
   A22        1.74502  -0.00037   0.00000  -0.00788  -0.00768   1.73734
   A23        2.04759   0.00021   0.00000  -0.00465  -0.00480   2.04279
   A24        1.99470  -0.00105   0.00000  -0.00304  -0.00324   1.99146
   A25        1.63131   0.00082   0.00000  -0.00097  -0.00111   1.63020
   A26        1.96993  -0.00004   0.00000   0.00412   0.00416   1.97409
   A27        1.98342  -0.00035   0.00000  -0.00251  -0.00249   1.98093
   A28        1.97006  -0.00005   0.00000   0.00402   0.00407   1.97412
   A29        1.98352  -0.00035   0.00000  -0.00257  -0.00255   1.98097
   A30        1.91355   0.00003   0.00000  -0.00173  -0.00175   1.91181
   A31        1.79396  -0.00076   0.00000  -0.00259  -0.00278   1.79118
   A32        1.85199  -0.00091   0.00000   0.00098   0.00070   1.85268
   A33        1.93856   0.00058   0.00000  -0.01260  -0.01283   1.92574
   A34        2.04865   0.00447   0.00000   0.04654   0.04623   2.09488
   A35        1.90397  -0.00165   0.00000  -0.01610  -0.01604   1.88793
   A36        1.92170  -0.00166   0.00000  -0.01673  -0.01661   1.90510
   A37        1.81404   0.00119   0.00000   0.00784   0.00794   1.82197
   A38        1.96152   0.00005   0.00000   0.00603   0.00596   1.96748
   A39        1.92464   0.00011   0.00000   0.00332   0.00326   1.92790
   A40        1.96084  -0.00013   0.00000   0.00430   0.00409   1.96493
   A41        1.91031  -0.00042   0.00000  -0.00412  -0.00410   1.90621
   A42        1.89164  -0.00075   0.00000  -0.01640  -0.01636   1.87527
   A43        1.80514   0.00027   0.00000   0.00864   0.00841   1.81355
   A44        1.91809  -0.00020   0.00000  -0.00507  -0.00504   1.91305
   A45        1.96516   0.00059   0.00000   0.01039   0.01029   1.97545
   A46        1.91813  -0.00020   0.00000  -0.00509  -0.00505   1.91307
   A47        1.96513   0.00059   0.00000   0.01044   0.01034   1.97547
   A48        1.89116  -0.00101   0.00000  -0.01849  -0.01845   1.87271
   A49        1.81404   0.00118   0.00000   0.00783   0.00793   1.82197
   A50        1.92448   0.00012   0.00000   0.00344   0.00339   1.92786
   A51        1.96155   0.00005   0.00000   0.00597   0.00591   1.96746
   A52        1.91030  -0.00042   0.00000  -0.00411  -0.00409   1.90621
   A53        1.96089  -0.00012   0.00000   0.00428   0.00407   1.96496
   A54        1.89171  -0.00075   0.00000  -0.01644  -0.01641   1.87530
    D1       -1.16450   0.00062   0.00000   0.01143   0.01140  -1.15310
    D2        0.64657   0.00020   0.00000   0.00699   0.00695   0.65352
    D3        2.84934  -0.00038   0.00000  -0.00588  -0.00595   2.84339
    D4        0.85993   0.00122   0.00000   0.03409   0.03436   0.89430
    D5        2.67100   0.00080   0.00000   0.02965   0.02991   2.70092
    D6       -1.40942   0.00022   0.00000   0.01678   0.01702  -1.39240
    D7        3.06020   0.00106   0.00000   0.03422   0.03417   3.09437
    D8       -1.41192   0.00065   0.00000   0.02978   0.02972  -1.38220
    D9        0.79085   0.00007   0.00000   0.01690   0.01683   0.80767
   D10        0.00000  -0.00000   0.00000  -0.00003  -0.00003  -0.00003
   D11        2.16084   0.00430   0.00000   0.05222   0.05190   2.21274
   D12       -2.03402   0.00206   0.00000   0.02569   0.02551  -2.00851
   D13       -2.16106  -0.00429   0.00000  -0.05207  -0.05175  -2.21281
   D14       -0.00022   0.00001   0.00000   0.00017   0.00017  -0.00005
   D15        2.08811  -0.00223   0.00000  -0.02635  -0.02621   2.06189
   D16        2.03392  -0.00206   0.00000  -0.02566  -0.02548   2.00844
   D17       -2.08843   0.00224   0.00000   0.02658   0.02644  -2.06198
   D18       -0.00010   0.00000   0.00000   0.00006   0.00006  -0.00005
   D19       -2.41141  -0.00027   0.00000  -0.00456  -0.00494  -2.41635
   D20       -0.36557  -0.00006   0.00000  -0.00349  -0.00376  -0.36933
   D21        1.74711  -0.00090   0.00000  -0.01801  -0.01834   1.72877
   D22       -0.41886   0.00057   0.00000   0.01804   0.01810  -0.40076
   D23        1.62698   0.00078   0.00000   0.01912   0.01927   1.64626
   D24       -2.54352  -0.00006   0.00000   0.00459   0.00469  -2.53882
   D25        1.68030  -0.00017   0.00000  -0.00550  -0.00549   1.67480
   D26       -2.55704   0.00003   0.00000  -0.00442  -0.00432  -2.56137
   D27       -0.44436  -0.00081   0.00000  -0.01894  -0.01890  -0.46326
   D28        1.22162  -0.00046   0.00000  -0.01094  -0.01094   1.21068
   D29       -1.88254   0.00026   0.00000   0.02012   0.02027  -1.86227
   D30       -0.59022  -0.00053   0.00000  -0.00712  -0.00714  -0.59735
   D31        2.58881   0.00020   0.00000   0.02395   0.02407   2.61288
   D32       -2.80826   0.00039   0.00000   0.00772   0.00770  -2.80056
   D33        0.37076   0.00111   0.00000   0.03879   0.03891   0.40967
   D34       -1.02979  -0.00145   0.00000  -0.01555  -0.01555  -1.04534
   D35       -3.06536  -0.00180   0.00000  -0.02072  -0.02073  -3.08609
   D36        1.02485  -0.00152   0.00000  -0.01972  -0.01975   1.00510
   D37        0.88555   0.00158   0.00000   0.01161   0.01165   0.89720
   D38       -1.15003   0.00123   0.00000   0.00645   0.00648  -1.14355
   D39        2.94019   0.00151   0.00000   0.00744   0.00745   2.94764
   D40        3.08698   0.00004   0.00000  -0.00318  -0.00315   3.08382
   D41        1.05140  -0.00032   0.00000  -0.00835  -0.00833   1.04307
   D42       -1.14157  -0.00003   0.00000  -0.00736  -0.00735  -1.14893
   D43       -0.00016   0.00001   0.00000   0.00025   0.00025   0.00008
   D44       -3.10222   0.00065   0.00000   0.03197   0.03157  -3.07065
   D45        3.10206  -0.00064   0.00000  -0.03174  -0.03134   3.07072
   D46        0.00000  -0.00000   0.00000  -0.00002  -0.00001  -0.00001
   D47        0.59053   0.00051   0.00000   0.00669   0.00672   0.59725
   D48       -1.22152   0.00046   0.00000   0.01071   0.01070  -1.21083
   D49        2.80839  -0.00039   0.00000  -0.00795  -0.00793   2.80046
   D50       -2.58865  -0.00021   0.00000  -0.02412  -0.02424  -2.61289
   D51        1.88248  -0.00025   0.00000  -0.02011  -0.02026   1.86222
   D52       -0.37079  -0.00111   0.00000  -0.03877  -0.03889  -0.40968
   D53       -0.88567  -0.00157   0.00000  -0.01147  -0.01150  -0.89717
   D54        1.14980  -0.00122   0.00000  -0.00622  -0.00625   1.14355
   D55       -2.94022  -0.00150   0.00000  -0.00735  -0.00735  -2.94757
   D56        1.02989   0.00143   0.00000   0.01543   0.01544   1.04533
   D57        3.06536   0.00179   0.00000   0.02068   0.02069   3.08606
   D58       -1.02466   0.00150   0.00000   0.01955   0.01959  -1.00507
   D59       -3.08692  -0.00004   0.00000   0.00314   0.00311  -3.08381
   D60       -1.05145   0.00032   0.00000   0.00839   0.00836  -1.04309
   D61        1.14171   0.00003   0.00000   0.00726   0.00726   1.14897
   D62        1.16456  -0.00062   0.00000  -0.01142  -0.01139   1.15317
   D63       -0.85959  -0.00123   0.00000  -0.03434  -0.03461  -0.89420
   D64       -3.06005  -0.00107   0.00000  -0.03428  -0.03424  -3.09428
   D65       -0.64665  -0.00019   0.00000  -0.00691  -0.00686  -0.65351
   D66       -2.67079  -0.00080   0.00000  -0.02982  -0.03008  -2.70088
   D67        1.41193  -0.00064   0.00000  -0.02976  -0.02971   1.38222
   D68       -2.84932   0.00039   0.00000   0.00589   0.00595  -2.84337
   D69        1.40971  -0.00023   0.00000  -0.01703  -0.01727   1.39245
   D70       -0.79074  -0.00007   0.00000  -0.01697  -0.01689  -0.80764
   D71        0.41920  -0.00058   0.00000  -0.01831  -0.01837   0.40083
   D72        2.54378   0.00005   0.00000  -0.00480  -0.00490   2.53888
   D73       -1.62673  -0.00079   0.00000  -0.01932  -0.01948  -1.64620
   D74        2.41137   0.00029   0.00000   0.00466   0.00504   2.41640
   D75       -1.74724   0.00092   0.00000   0.01816   0.01850  -1.72874
   D76        0.36544   0.00008   0.00000   0.00365   0.00393   0.36936
   D77       -1.68011   0.00018   0.00000   0.00538   0.00537  -1.67473
   D78        0.44447   0.00081   0.00000   0.01888   0.01884   0.46331
   D79        2.55715  -0.00003   0.00000   0.00436   0.00427   2.56141
   D80       -0.68277   0.00070   0.00000   0.02901   0.02911  -0.65366
   D81        1.36443   0.00053   0.00000   0.02539   0.02541   1.38983
   D82       -2.80884  -0.00050   0.00000   0.00526   0.00525  -2.80359
   D83       -2.80780  -0.00005   0.00000   0.01436   0.01443  -2.79337
   D84       -0.76060  -0.00022   0.00000   0.01075   0.01073  -0.74988
   D85        1.34931  -0.00125   0.00000  -0.00939  -0.00943   1.33988
   D86        1.37310   0.00126   0.00000   0.03508   0.03518   1.40828
   D87       -2.86289   0.00109   0.00000   0.03147   0.03147  -2.83142
   D88       -0.75297   0.00006   0.00000   0.01133   0.01131  -0.74166
   D89        0.68261  -0.00070   0.00000  -0.02888  -0.02899   0.65362
   D90       -1.37307  -0.00127   0.00000  -0.03510  -0.03520  -1.40827
   D91        2.80771   0.00005   0.00000  -0.01432  -0.01439   2.79332
   D92       -1.36456  -0.00052   0.00000  -0.02528  -0.02530  -1.38985
   D93        2.86295  -0.00109   0.00000  -0.03150  -0.03151   2.83144
   D94        0.76054   0.00022   0.00000  -0.01072  -0.01070   0.74985
   D95        2.80870   0.00051   0.00000  -0.00517  -0.00515   2.80355
   D96        0.75302  -0.00006   0.00000  -0.01138  -0.01136   0.74166
   D97       -1.34938   0.00125   0.00000   0.00940   0.00944  -1.33994
         Item               Value     Threshold  Converged?
 Maximum Force            0.012081     0.000450     NO 
 RMS     Force            0.002534     0.000300     NO 
 Maximum Displacement     0.192510     0.001800     NO 
 RMS     Displacement     0.042883     0.001200     NO 
 Predicted change in Energy=-2.967959D-03
 GradGradGradGradGradGradGradGradGradGradGradGradGradGradGradGradGradGrad

                          Input orientation:                          
 ---------------------------------------------------------------------
 Center     Atomic      Atomic             Coordinates (Angstroms)
 Number     Number       Type             X           Y           Z
 ---------------------------------------------------------------------
      1          6           0       -0.307877    0.783589   -0.708552
      2          6           0        1.123378    1.127205   -0.158028
      3          6           0        1.222510    0.666779    1.287362
      4          6           0        1.222527   -0.666703    1.287354
      5          6           0        1.123523   -1.127058   -0.158081
      6          6           0        1.938000    0.000107   -0.839629
      7          6           0       -0.307791   -0.783599   -0.708565
      8          6           0       -1.562609   -1.213038    0.081065
      9          6           0       -2.507335   -0.000136   -0.012268
     10          6           0       -1.562790    1.212896    0.081034
     11          1           0       -0.380032    1.163254   -1.730370
     12          1           0        1.439409    2.151973   -0.349455
     13          1           0        1.220372    1.323750    2.146100
     14          1           0        1.220415   -1.323698    2.146065
     15          1           0        1.439693   -2.151791   -0.349547
     16          1           0        2.991012    0.000178   -0.554128
     17          1           0        1.854728    0.000147   -1.929626
     18          1           0       -0.379950   -1.163257   -1.730373
     19          1           0       -2.014212   -2.127235   -0.309206
     20          1           0       -1.311708   -1.393049    1.127214
     21          1           0       -3.010030   -0.000197   -0.983946
     22          1           0       -3.284447   -0.000193    0.755488
     23          1           0       -1.311905    1.392964    1.127184
     24          1           0       -2.014481    2.127013   -0.309291
 ---------------------------------------------------------------------
                    Distance matrix (angstroms):
                    1          2          3          4          5
     1  C    0.000000
     2  C    1.571509   0.000000
     3  C    2.517817   1.520188   0.000000
     4  C    2.903295   2.305876   1.333482   0.000000
     5  C    2.450000   2.254263   2.305853   1.520201   0.000000
     6  C    2.382223   1.548721   2.341039   2.341066   1.548671
     7  C    1.567188   2.450001   2.903298   2.517782   1.571514
     8  C    2.486838   3.570494   3.570119   3.083925   2.698127
     9  C    2.436524   3.804500   4.005690   4.005645   3.804516
    10  C    1.543553   2.698146   3.084050   3.570166   3.570552
    11  H    1.092458   2.175730   3.452729   3.876028   3.158845
    12  H    2.248207   1.089343   2.220814   3.266667   3.299766
    13  H    3.282737   2.314529   1.081225   2.167800   3.365278
    14  H    3.863311   3.365291   2.167803   1.081218   2.314551
    15  H    3.435017   3.299780   3.266645   2.220831   1.089357
    16  H    3.394149   2.217012   2.638758   2.638812   2.216987
    17  H    2.604163   2.223442   3.345611   3.345643   2.223427
    18  H    2.199891   3.158873   3.876033   3.452705   2.175740
    19  H    3.397640   4.523131   4.564199   3.893410   3.296753
    20  H    3.019183   3.732716   3.269678   2.641130   2.766421
    21  H    2.826975   4.363282   4.849545   4.849491   4.363270
    22  H    3.408473   4.640523   4.586981   4.586930   4.640542
    23  H    2.179297   2.766405   2.641261   3.269744   3.732791
    24  H    2.208323   3.296764   3.893544   4.564246   4.523153
                    6          7          8          9         10
     6  C    0.000000
     7  C    2.382215   0.000000
     8  C    3.817546   1.543535   0.000000
     9  C    4.521673   2.436521   1.540243   0.000000
    10  C    3.817591   2.486862   2.425934   1.540233   0.000000
    11  H    2.742189   2.199895   3.213494   2.971660   2.163924
    12  H    2.262606   3.435003   4.529984   4.507999   3.174962
    13  H    3.343889   3.863330   4.294723   4.506332   3.467387
    14  H    3.343913   3.282687   3.467232   4.506255   4.294752
    15  H    2.262555   2.248231   3.174980   4.508037   4.530058
    16  H    1.091029   3.394151   4.755084   5.524982   4.755126
    17  H    1.093174   2.604177   4.146431   4.764856   4.146438
    18  H    2.742213   1.092447   2.163901   2.971616   3.213474
    19  H    4.519615   2.208330   1.091794   2.203609   3.393015
    20  H    4.045980   2.179304   1.090772   2.160590   2.819306
    21  H    4.950133   2.826950   2.168008   1.094011   2.168014
    22  H    5.460617   3.408468   2.211462   1.092406   2.211465
    23  H    4.046020   3.019213   2.819302   2.160586   1.090778
    24  H    4.519633   3.397627   3.393008   2.203609   1.091782
                   11         12         13         14         15
    11  H    0.000000
    12  H    2.488947   0.000000
    13  H    4.196913   2.638508   0.000000
    14  H    4.875768   4.284374   2.647448   0.000000
    15  H    4.025865   4.303763   4.284360   2.638541   0.000000
    16  H    3.755027   2.660748   3.489734   3.489800   2.660717
    17  H    2.527187   2.701812   4.331960   4.331995   2.701803
    18  H    2.326510   4.025885   4.875785   4.196866   2.488972
    19  H    3.939234   5.499158   5.329200   4.139668   3.454228
    20  H    3.945693   4.724021   3.851047   2.730296   3.213521
    21  H    2.971136   4.983163   5.426447   5.426351   4.983156
    22  H    3.996088   5.307309   4.896940   4.896851   5.307351
    23  H    3.014427   3.213453   2.730459   3.851106   4.724120
    24  H    2.370595   3.454213   4.139861   5.329233   5.499190
                   16         17         18         19         20
    16  H    0.000000
    17  H    1.784135   0.000000
    18  H    3.755066   2.527251   0.000000
    19  H    5.444093   4.703214   2.370608   0.000000
    20  H    4.825080   4.616447   3.014429   1.759501   0.000000
    21  H    6.016414   4.955823   2.971057   2.443607   3.046527
    22  H    6.410653   5.798358   3.996038   2.696549   2.443344
    23  H    4.825117   4.616448   3.945686   3.866298   2.786013
    24  H    5.444109   4.703172   3.939168   4.254248   3.866300
                   21         22         23         24
    21  H    0.000000
    22  H    1.760947   0.000000
    23  H    3.046538   2.443352   0.000000
    24  H    2.443625   2.696585   1.759517   0.000000
 Stoichiometry    C10H14
 Framework group  C1[X(C10H14)]
 Deg. of freedom    66
 Full point group                 C1      NOp   1
 Largest Abelian subgroup         C1      NOp   1
 Largest concise Abelian subgroup C1      NOp   1
                         Standard orientation:                         
 ---------------------------------------------------------------------
 Center     Atomic      Atomic             Coordinates (Angstroms)
 Number     Number       Type             X           Y           Z
 ---------------------------------------------------------------------
      1          6           0       -0.333290    0.783618   -0.689149
      2          6           0        1.128707    1.127156   -0.226344
      3          6           0        1.315206    0.666689    1.210374
      4          6           0        1.315160   -0.666793    1.210335
      5          6           0        1.128744   -1.127107   -0.226456
      6          6           0        1.900484    0.000039   -0.956073
      7          6           0       -0.333277   -0.783569   -0.689203
      8          6           0       -1.537969   -1.212972    0.174992
      9          6           0       -2.486557   -0.000025    0.139095
     10          6           0       -1.538038    1.212963    0.175026
     11          1           0       -0.467203    1.163312   -1.704710
     12          1           0        1.432607    2.151914   -0.436544
     13          1           0        1.365131    1.323640    2.067679
     14          1           0        1.365049   -1.323809    2.067583
     15          1           0        1.432685   -2.151849   -0.436749
     16          1           0        2.968859    0.000056   -0.734895
     17          1           0        1.751326    0.000110   -2.039023
     18          1           0       -0.467229   -1.163199   -1.704771
     19          1           0       -2.012430   -2.127139   -0.187222
     20          1           0       -1.224155   -1.393021    1.204014
     21          1           0       -3.047199   -0.000040   -0.800341
     22          1           0       -3.215726   -0.000066    0.952523
     23          1           0       -1.224223    1.392993    1.204058
     24          1           0       -2.012506    2.127109   -0.187195
 ---------------------------------------------------------------------
 Rotational constants (GHZ):           2.4813862           1.3156815           1.2029571
 Standard basis: def2TZVP (5D, 7F)
 There are   444 symmetry adapted cartesian basis functions of A   symmetry.
 There are   394 symmetry adapted basis functions of A   symmetry.
   394 basis functions,   622 primitive gaussians,   444 cartesian basis functions
    37 alpha electrons       37 beta electrons
       nuclear repulsion energy       555.8173294524 Hartrees.
 NAtoms=   24 NActive=   24 NUniq=   24 SFac= 1.00D+00 NAtFMM=   60 NAOKFM=F Big=F
 Integral buffers will be    131072 words long.
 Raffenetti 2 integral format.
 Two-electron integral symmetry is turned on.
 One-electron integrals computed using PRISM.
   1 Symmetry operations used in ECPInt.
 ECPInt:  NShTT=   13861 NPrTT=   40732 LenC2=   13671 LenP2D=   32463.
 LDataN:  DoStor=T MaxTD1= 6 Len=  172
 NBasis=   394 RedAO= T EigKep=  2.05D-05  NBF=   394
 NBsUse=   394 1.00D-06 EigRej= -1.00D+00 NBFU=   394
 Initial guess from the checkpoint file:  "/tmp/Gau-2140893.chk"
 B after Tr=     0.000000    0.000000    0.000000
         Rot=    0.999946   -0.000008   -0.010438    0.000005 Ang=  -1.20 deg.
 ExpMin= 9.52D-02 ExpMax= 1.36D+04 ExpMxC= 4.63D+02 IAcc=3 IRadAn=         5 AccDes= 0.00D+00
 Harris functional with IExCor=  402 and IRadAn=       5 diagonalized for initial guess.
 HarFok:  IExCor=  402 AccDes= 0.00D+00 IRadAn=         5 IDoV= 1 UseB2=F ITyADJ=14
 ICtDFT=  3500011 ScaDFX=  1.000000  1.000000  1.000000  1.000000
 FoFCou: FMM=F IPFlag=           0 FMFlag=      100000 FMFlg1=           0
         NFxFlg=           0 DoJE=T BraDBF=F KetDBF=T FulRan=T
         wScrn=  0.000000 ICntrl=       500 IOpCl=  0 I1Cent=   200000004 NGrid=           0
         NMat0=    1 NMatS0=      1 NMatT0=    0 NMatD0=    1 NMtDS0=    0 NMtDT0=    0
 Petite list used in FoFCou.
 Requested convergence on RMS density matrix=1.00D-08 within 128 cycles.
 Requested convergence on MAX density matrix=1.00D-06.
 Requested convergence on             energy=1.00D-06.
 No special actions if energy rises.
 Integral accuracy reduced to 1.0D-05 until final iterations.
 Initial convergence to 1.0D-05 achieved.  Increase integral accuracy.
 SCF Done:  E(RB3LYP) =  -389.594873239     A.U. after   11 cycles
            NFock= 11  Conv=0.38D-08     -V/T= 2.0056
   1 Symmetry operations used in ECPInt.
 ECPInt:  NShTT=   13861 NPrTT=   40732 LenC2=   13671 LenP2D=   32463.
 LDataN:  DoStor=T MaxTD1= 7 Len=  274
 Calling FoFJK, ICntrl=      2127 FMM=F ISym2X=0 I1Cent= 0 IOpClX= 0 NMat=1 NMatS=1 NMatT=0.
 ***** Axes restored to original set *****
 -------------------------------------------------------------------
 Center     Atomic                   Forces (Hartrees/Bohr)
 Number     Number              X              Y              Z
[...]
 112,-0.00012950,0.00114924,0.00087667,-0.01320432,0.04883156,0.0595779
 0,-0.00203915,0.00108393,0.00231991,-0.01184107,-0.00185851,-0.0041215
 0,0.00141971,0.00089867,-0.00087643,0.00141986,-0.00089845,-0.00087629
 ,-0.01183848,0.00185707,-0.00412068,-0.28966804,-0.00001373,-0.0672464
 2,-0.00203862,-0.00108380,0.00231948,-0.00012547,0.00040548,-0.0009251
 4,-0.00047545,0.00000001,0.00053221,-0.00012556,-0.00040561,-0.0009252
 3,0.00017420,0.00002019,-0.00015977,0.00035614,0.00043506,0.00002755,-
 0.00007090,-0.00001964,0.00016274,-0.00007093,0.00001963,0.00016273,0.
 00035609,-0.00043507,0.00002763,0.31545648,0.00285219,-0.00325317,-0.0
 0320858,0.02347614,0.00151703,0.00623750,0.00045601,-0.00048300,0.0011
 7407,-0.00045585,-0.00048306,-0.00117409,-0.02347790,0.00151469,-0.006
 23805,-0.00001365,-0.04498487,-0.00000372,-0.00285204,-0.00325370,0.00
 320887,-0.00114388,0.00093659,-0.00078665,0.,-0.00069690,0.00000004,0.
 00114376,0.00093666,0.00078654,-0.00023635,-0.00010618,-0.00010314,-0.
 00074692,0.00040330,0.00073592,-0.00012484,0.00004382,-0.00008347,0.00
 012479,0.00004384,0.00008349,0.00074692,0.00040335,-0.00073593,0.00001
 499,0.04727774,0.00136140,-0.00035072,-0.00099141,0.01039708,0.0015505
 4,0.00099310,0.00136933,-0.00042475,0.00117761,0.00136932,0.00042490,0
 .00117745,0.01039684,-0.00154932,0.00099299,-0.07214919,-0.00000398,-0
 .07092571,0.00136133,0.00035090,-0.00099133,0.00067764,0.00006545,0.00
 048610,0.00008086,0.,-0.00004466,0.00067766,-0.00006538,0.00048612,0.0
 0024060,-0.00018014,0.00033278,-0.00046284,0.00023153,0.00030428,-0.00
 010221,-0.00007609,0.00004116,-0.00010219,0.00007607,0.00004117,-0.000
 46280,-0.00023157,0.00030425,0.07417774,0.00000404,0.07301534,0.000215
 17,0.00036463,0.00082835,0.00018427,-0.00222135,0.01248192,0.00014119,
 0.00215518,0.00199909,0.00014186,-0.00215487,0.00199892,0.00018387,0.0
 0222084,0.01247925,-0.05582441,-0.00000024,-0.02572468,0.00021516,-0.0
 0036462,0.00082820,0.00018847,0.00006241,-0.00013437,-0.00001505,0.,-0
 .00003165,0.00018850,-0.00006237,-0.00013437,-0.00045795,0.00040003,0.
 00005802,0.00033659,-0.00009861,-0.00045374,-0.00029006,-0.00035718,0.
 00064912,-0.00029008,0.00035705,0.00064902,0.00033649,0.00009863,-0.00
 045370,-0.00051388,0.00000031,-0.02920913,0.05548158,-0.00121768,0.000
 47332,-0.00087267,-0.00181764,0.00174217,-0.02415133,0.00297261,-0.002
 93362,-0.00138329,-0.00297234,-0.00293439,0.00138346,0.00181747,0.0017
 4205,0.02415338,-0.00000028,-0.04709020,0.00000107,0.00121771,0.000473
 39,0.00087268,0.00011432,-0.00023027,-0.00011058,0.,0.00011929,0.,-0.0
 0011428,-0.00023029,0.00011055,0.00022108,0.00006663,0.00042326,-0.000
 79152,0.00029543,0.00043399,0.00009935,0.00065355,-0.00108329,-0.00009
 941,0.00065355,0.00108339,0.00079154,0.00029556,-0.00043408,-0.0000000
 1,-0.00009975,-0.00000165,0.00000022,0.04700427,-0.00116732,0.00010009
 ,-0.00007111,-0.00224069,0.00203768,-0.00967292,0.00111474,-0.00067990
 ,-0.00229809,0.00111469,0.00068007,-0.00229813,-0.00224036,-0.00203759
 ,-0.00967257,-0.02128433,0.00000126,-0.30001727,-0.00116723,-0.0001001
 8,-0.00007105,0.00025794,0.00015799,0.00023292,-0.00004870,0.,0.000066
 39,0.00025796,-0.00015798,0.00023296,0.00047030,-0.00025209,0.00074196
 ,0.00002126,-0.00047230,0.00023332,0.00067881,0.00033528,-0.00042336,0
 .00067884,-0.00033515,-0.00042338,0.00002123,0.00047231,0.00023334,-0.
 00072942,0.00000003,-0.00688103,0.02408351,-0.00000162,0.32891814,0.00
 078745,0.00090630,0.00104947,-0.00152719,-0.00000676,-0.00065540,-0.00
 020098,-0.00096037,-0.00077969,-0.00482456,0.00113159,-0.00026091,-0.0
 0550003,-0.00964720,-0.02807850,0.00155168,0.00034546,-0.00076005,-0.0
 4780948,-0.00629868,-0.01423229,0.00082771,0.00628980,0.02603840,0.000
 24189,-0.00033792,0.00021571,-0.00044791,0.00046092,-0.00025084,0.0006
 9574,-0.00012070,0.00004378,-0.00003518,-0.00008748,-0.00003034,0.0007
 0671,-0.00014814,0.00008821,-0.00007269,-0.00024846,-0.00060380,0.0014
 4141,0.00035185,0.00053621,0.00017415,0.00023638,0.00024060,-0.0004578
 3,-0.00022115,0.00047030,0.05734294,-0.00206466,-0.01263176,-0.0273273
 6,0.00047068,-0.00352850,-0.00033669,0.00017890,-0.00009927,0.00130629
 ,0.00196516,0.00022278,0.00024295,0.00231356,0.00347722,0.01010747,-0.
 00027498,0.00014922,-0.00075967,-0.00632159,-0.07422220,-0.08518878,-0
 .00127456,0.00274640,0.01147199,-0.00014707,-0.00022592,0.00027576,-0.
 00075308,-0.00314493,0.00021767,0.00012059,0.00160790,0.00015065,-0.00
 094464,-0.00021058,-0.00044559,-0.00014061,0.00006835,0.00000036,-0.00
 007553,0.00012112,0.00015309,-0.00091389,0.00032199,0.00007142,-0.0000
 2016,-0.00010615,0.00018016,-0.00040006,0.00006654,0.00025212,0.008106
 24,0.08449979,0.00057304,0.00353190,0.00233063,-0.00039746,0.00049537,
 0.00038970,-0.00023883,0.00042738,-0.00010845,-0.00225950,0.00076250,0
 .00014740,-0.00183675,-0.00411264,-0.01228599,0.00092764,-0.00003157,-
 0.00010279,-0.01471144,-0.08561227,-0.27200817,-0.00092475,-0.00417310
 ,-0.01643952,-0.00014541,-0.00011032,-0.00047232,0.00042496,0.00033932
 ,0.00052023,0.00004380,-0.00015063,0.00195955,-0.00002795,0.00002986,-
 0.00000999,0.00023005,-0.00005464,0.00010902,-0.00007614,-0.00020150,-
 0.00021674,-0.00000585,0.00060250,0.00042744,-0.00015978,0.00010310,0.
 00033277,0.00005803,-0.00042327,0.00074189,0.01530876,0.08798631,0.293
 74261,-0.00281129,0.00016878,0.00184155,0.00007189,-0.00056877,0.00015
 447,-0.00007321,0.00025739,0.00005328,-0.00021940,-0.00010976,0.000342
 68,-0.00051095,-0.00105187,0.00044955,-0.00055239,-0.00003590,-0.00008
 297,-0.00891559,-0.02082410,-0.01029028,-0.09208266,-0.09051905,-0.040
 08549,0.01032135,0.01826751,0.00804651,-0.00297855,0.00337802,-0.00017
 198,-0.00010847,-0.00065729,0.00005932,-0.00028647,-0.00007228,-0.0001
 1412,-0.00000701,-0.00000282,-0.00003635,0.00005397,-0.00001920,-0.000
 02306,-0.00035078,0.00019879,-0.00001926,-0.00017920,-0.00014300,0.000
 13742,0.00003140,-0.00002636,0.00004182,0.00139761,0.00087778,-0.00014
 547,0.09856865,0.00000439,-0.00061673,0.00022249,-0.00001930,-0.000198
 53,0.00025000,0.00008932,0.00004059,0.00005985,-0.00004117,0.00000620,
 0.00007101,-0.00003007,-0.00040568,0.00032640,-0.00026459,0.00001993,-
 0.00013880,-0.00096573,-0.00423619,-0.00264827,-0.08966261,-0.22529613
 ,-0.07847399,-0.01109337,-0.01803227,-0.00844951,0.00291522,-0.0032467
 2,0.00136925,-0.00016638,-0.00031479,0.00010731,-0.00010245,0.00003773
 ,-0.00004044,0.00001440,0.00000675,-0.00000437,0.00000924,0.00002367,-
 0.00003399,-0.00011416,0.00008609,-0.00003651,-0.00007136,-0.00002613,
 0.00001187,0.00001180,-0.00001287,0.00000101,0.00018327,0.00082181,0.0
 0056765,0.09796537,0.24614940,0.00218098,0.00164493,-0.00103559,0.0002
 9709,0.00052602,-0.00016608,-0.00047167,0.00041461,-0.00010943,-0.0004
 1796,-0.00053536,-0.00011369,0.00015943,0.00006678,-0.00027237,0.00001
 759,0.00012678,0.00009036,0.00712544,0.01521466,0.00522043,-0.04117411
 ,-0.08160623,-0.08363067,0.00060253,0.00280651,-0.00004006,0.00090480,
 0.00079740,0.00015482,0.00008675,0.00050134,-0.00009954,0.00019118,0.0
 0002767,0.00016292,0.00004048,0.00001429,0.00003544,0.00011924,-0.0001
 0394,0.00007926,0.00001498,-0.00000390,0.00009535,0.00010800,-0.000004
 50,-0.00004237,0.00000342,0.00003318,0.00002946,-0.00040699,0.00024642
 ,0.00135725,0.04247119,0.08581667,0.08824308,-0.00036195,0.00058237,0.
 00062978,-0.00002239,-0.00021241,-0.00012349,-0.00006218,-0.00051004,0
 .00033872,-0.00114753,0.00046951,-0.00057906,0.00160210,0.00067839,-0.
 00005485,0.00040409,0.00009865,0.00011967,0.00459900,-0.00360675,0.027
 42810,-0.05922011,0.00744109,-0.05923168,-0.00829493,0.00472914,-0.021
 77067,0.00028185,-0.00076081,-0.00006592,0.00004987,-0.00025802,-0.000
 16008,-0.00007905,0.00000561,-0.00010486,-0.00004185,0.00001670,-0.000
 03672,-0.00080060,-0.00033652,-0.00039203,-0.00010587,0.00005514,-0.00
 000516,0.00001832,0.00007353,-0.00009849,0.00006719,0.00002219,-0.0001
 8873,-0.00363094,-0.00196986,0.00287932,-0.00329391,0.00209891,-0.0125
 6069,0.07053475,-0.00028446,-0.00013899,-0.00026098,-0.00012731,-0.000
 21279,0.00009214,0.00019204,-0.00046153,0.00012094,-0.00033425,0.00052
 653,0.00012724,0.00007043,0.00088677,-0.00040758,0.00010570,-0.0000475
 7,-0.00006670,0.00291553,-0.00093036,0.00647483,0.00657968,-0.05638517
 ,0.03727365,0.00809606,-0.00454814,0.02548999,0.00000588,0.00099396,0.
 00036108,-0.00000812,-0.00005081,-0.00008534,-0.00002768,0.00000722,-0
 .00006510,-0.00006101,-0.00003745,-0.00004313,-0.00002727,0.00016512,-
 0.00004925,-0.00008191,-0.00007196,-0.00011677,-0.00002595,0.00001749,
 0.00002157,0.00003399,0.00000587,-0.00004725,-0.00046879,0.00019608,0.
 00053705,-0.00653793,0.00515023,-0.02642990,-0.01207095,0.05747769,0.0
 0046351,-0.00012793,-0.00018086,0.00016916,0.00021331,-0.00037332,-0.0
 0087896,0.00034236,0.00028347,-0.00075202,-0.00015897,0.00011665,-0.00
 163751,-0.00054761,0.00021547,-0.00019377,0.00009900,-0.00021151,-0.00
 123407,0.00101540,-0.01718409,-0.05902594,0.03831709,-0.28123584,-0.00
 064469,0.00004313,-0.00080780,0.00010136,0.00003811,0.00006994,0.00011
 000,0.00012477,0.00009572,0.00011551,-0.00001466,0.00007882,-0.0000239
 4,-0.00000537,0.00003584,-0.00032015,-0.00034757,0.00047392,0.00030807
 ,-0.00007575,0.00001344,0.00012200,-0.00007015,0.00012336,0.00001628,-
 0.00002951,0.00019355,0.00241203,0.00203387,-0.00083824,-0.00307212,0.
 00094360,-0.01107999,0.06386345,-0.04239427,0.30722874,0.00085140,-0.0
 0011581,-0.00028412,-0.00015207,0.00006129,0.00003502,-0.00013747,0.00
 016980,0.00007123,-0.00013744,-0.00016982,0.00007122,-0.00015208,-0.00
 006130,0.00003503,-0.00004987,0.,-0.00005569,0.00085150,0.00011589,-0.
 00028421,-0.00882879,0.00089768,-0.01740274,-0.10388343,-0.00000357,-0
 .09996935,-0.00882713,-0.00089845,-0.01739982,-0.00032708,-0.00026113,
 0.00024526,0.00005898,-0.00000275,0.00000437,0.00005675,0.00000208,0.0
 0007591,0.00005675,-0.00000208,0.00007592,0.00005898,0.00000275,0.0000
 0437,0.00000315,0.,0.00001474,-0.00000785,0.,0.00004104,-0.00032714,0.
 00026108,0.00024531,0.00121663,-0.00038818,0.00056732,-0.00176794,0.00
 276345,0.00020320,0.11063974,0.00101326,0.00015522,-0.00056275,-0.0001
 0112,-0.00002272,-0.00004501,0.00004644,-0.00000509,0.00002894,-0.0000
 4644,-0.00000509,-0.00002893,0.00010110,-0.00002272,0.00004502,0.,0.00
 005922,0.,-0.00101318,0.00015513,0.00056275,0.01363678,-0.00302138,0.0
 2581650,-0.00000356,-0.04426377,-0.00000607,-0.01363747,-0.00302319,-0
 .02581851,-0.00028882,0.00015491,0.00031953,0.00003430,0.00002897,-0.0
 0002553,0.00005533,0.00003357,0.00008928,-0.00005532,0.00003356,-0.000
 08926,-0.00003429,0.00002896,0.00002553,0.,0.00004142,0.,0.,0.00000527
 ,0.,0.00028876,0.00015498,-0.00031951,-0.00115028,0.00145260,0.0002629
 3,0.00445390,-0.00386134,-0.00009315,0.00000343,0.05444456,-0.00007953
 ,0.00016277,0.00023305,-0.00016531,0.00005997,0.00010674,0.00014953,-0
 .00015437,0.00010106,0.00014950,0.00015438,0.00010106,-0.00016530,-0.0
 0005999,0.00010674,-0.00008092,0.,-0.00006052,-0.00007949,-0.00016279,
 0.00023305,-0.00057590,0.00099109,-0.00197393,-0.10063707,-0.00000612,
 -0.24654986,-0.00057575,-0.00099116,-0.00197383,-0.00022682,0.00002150
 ,0.00025234,-0.00001006,-0.00002617,-0.00001036,0.00001833,0.00002241,
 0.00000715,0.00001833,-0.00002241,0.00000715,-0.00001006,0.00002617,-0
 .00001036,-0.00004703,0.,0.00001794,0.00000547,0.,0.00002340,-0.000226
 81,-0.00002154,0.00025235,0.00011514,0.00062399,0.00086462,-0.00020261
 ,0.00048170,0.00153489,0.11318529,0.00000687,0.26576590,-0.00260877,-0
 .00146629,-0.00065397,-0.00004511,0.00009887,0.00099801,0.00010295,-0.
 00004797,0.00003676,0.00010295,0.00004799,0.00003678,-0.00004514,-0.00
 009896,0.00099814,-0.00067152,-0.00000002,-0.00029361,-0.00260925,0.00
 146646,-0.00065411,-0.01115127,-0.00161077,0.01175404,-0.16951239,-0.0
 0000666,0.12696037,-0.01114945,0.00160935,0.01175187,-0.00027465,-0.00
 009141,0.00033913,-0.00016306,-0.00005998,-0.00005828,-0.00002270,-0.0
 0002664,-0.00006731,-0.00002270,0.00002664,-0.00006731,-0.00016307,0.0
 0005996,-0.00005828,-0.00023044,-0.00000004,0.00004536,0.00004675,0.,-
 0.00003873,-0.00027465,0.00009137,0.00033916,-0.00012758,0.00051442,0.
 00006674,0.00065217,-0.00062285,-0.00029932,0.01135506,0.00000063,-0.0
 1047161,0.18628744,-0.00248962,-0.00415885,-0.00104922,-0.00047440,0.0
 0067881,0.00105152,0.00012500,0.00000439,0.00022225,-0.00012500,0.0000
 0440,-0.00022224,0.00047431,0.00067888,-0.00105141,-0.00000001,-0.0003
 3359,-0.00000002,0.00248983,-0.00415841,0.00104917,0.01779341,0.001647
 55,-0.01907379,-0.00000662,-0.04777348,0.00000694,-0.01779494,0.001645
 77,0.01907513,-0.00007059,0.00008061,0.00017156,0.00000136,-0.00000518
 ,0.00001219,-0.00001998,0.00003182,-0.00003195,0.00001998,0.00003183,0
 .00003194,-0.00000137,-0.00000517,-0.00001220,-0.00000003,0.00036562,0
 .,0.,-0.00005849,0.,0.00007053,0.00008062,-0.00017151,-0.00031983,-0.0
 0040806,-0.00025853,-0.00104652,0.00149655,0.00027356,0.00000070,-0.00
 011364,-0.00000065,0.00000753,0.04917935,-0.00055410,-0.00028607,0.001
 16952,-0.00043359,-0.00003151,-0.00014094,0.00011611,-0.00015755,0.000
 09635,0.00011609,0.00015756,0.00009636,-0.00043361,0.00003146,-0.00014
 092,0.00006549,0.,0.00003658,-0.00055412,0.00028601,0.00116950,-0.0038
 7838,0.00018077,0.00235733,0.12993576,0.00000713,-0.18384050,-0.003878
 30,-0.00018122,0.00235724,-0.00031465,-0.00000920,0.00017521,0.0000676
 9,0.00002054,0.00000391,-0.00002550,-0.00000083,0.00000260,-0.00002550
 ,0.00000082,0.00000260,0.00006769,-0.00002053,0.00000391,-0.00000229,0
 .,-0.00003094,-0.00001664,0.,-0.00004143,-0.00031466,0.00000917,0.0001
 7521,0.00038463,-0.00028693,-0.00008925,-0.00001279,-0.00040936,0.0011
 5147,0.01975016,0.00000109,-0.02142812,-0.14043125,-0.00000769,0.19585
 212,0.00459858,0.00360756,0.02742902,0.00160223,-0.00067830,-0.0000547
 7,-0.00114734,-0.00046960,-0.00057918,-0.00006215,0.00051002,0.0003387
 6,-0.00002244,0.00021243,-0.00012348,0.00040411,-0.00009861,0.00011969
 ,-0.00036195,-0.00058239,0.00062980,0.00028176,0.00076074,-0.00006587,
 -0.00829345,-0.00472973,-0.02176779,-0.05921793,-0.00744158,-0.0592267
 9,-0.00363119,0.00196943,0.00287936,-0.00010588,-0.00005516,-0.0000051
 7,-0.00080072,0.00033643,-0.00039205,-0.00004188,-0.00001670,-0.000036
 73,-0.00007907,-0.00000562,-0.00010486,0.00001832,-0.00007354,-0.00009
 849,0.00006719,-0.00002217,-0.00018874,0.00004985,0.00025804,-0.000160
 08,-0.00006629,0.00005252,0.00017607,0.00068621,-0.00009914,0.00015260
 ,-0.00176712,-0.00445368,-0.00020254,0.00065198,0.00104642,-0.00001284
 ,0.07053155,-0.00291475,-0.00093028,-0.00647184,-0.00007041,0.00088672
 ,0.00040752,0.00033403,0.00052651,-0.00012724,-0.00019195,-0.00046148,
 -0.00012093,0.00012733,-0.00021276,-0.00009214,-0.00010565,-0.00004759
 ,0.00006671,0.00028443,-0.00013903,0.00026107,-0.00000594,0.00099404,-
 0.00036110,-0.00809651,-0.00454978,-0.02549256,-0.00658021,-0.05638698
 ,-0.03728177,0.00046835,0.00019633,-0.00053672,0.00008192,-0.00007196,
 0.00011677,0.00002719,0.00016517,0.00004923,0.00006101,-0.00003745,0.0
 0004312,0.00002767,0.00000722,0.00006509,0.00002595,0.00001748,-0.0000
 2158,-0.00003398,0.00000586,0.00004723,0.00000813,-0.00005079,0.000085
 33,-0.00001489,0.00012396,0.00035679,0.00009928,-0.00030134,0.00024784
 ,-0.00276321,-0.00386218,-0.00048170,0.00062275,0.00149675,0.00040935,
 0.01207258,0.05748075,-0.00123391,-0.00101564,-0.01718395,-0.00163754,
 0.00054743,0.00021560,-0.00075196,0.00015882,0.00011656,-0.00087880,-0
 .00034245,0.00028346,0.00016917,-0.00021328,-0.00037333,-0.00019376,-0
 .00009902,-0.00021152,0.00046352,0.00012798,-0.00018089,0.00010136,-0.
 00003810,0.00006994,-0.00064467,-0.00004320,-0.00080777,-0.05902098,-0
 .03832521,-0.28123676,0.00241224,-0.00203358,-0.00083821,0.00030807,0.
 00007579,0.00001344,-0.00032027,0.00034755,0.00047395,-0.00002396,0.00
 000538,0.00003584,0.00011551,0.00001467,0.00007882,0.00012199,0.000070
 17,0.00012337,0.00001627,0.00002951,0.00019355,0.00011001,-0.00012475,
 0.00009571,0.00004534,-0.00017290,0.00015149,0.00015265,-0.00024779,0.
 00014491,0.00020319,0.00009317,0.00153490,-0.00029929,-0.00027359,0.00
 115148,0.06385786,0.04240309,0.30722966,-0.00891803,0.02082344,-0.0102
 9078,-0.00051110,0.00105193,0.00044967,-0.00021940,0.00010972,0.000342
 70,-0.00007316,-0.00025739,0.00005326,0.00007183,0.00056883,0.00015451
 ,-0.00055244,0.00003583,-0.00008299,-0.00281129,-0.00016902,0.00184148
 ,-0.00297783,-0.00337798,-0.00017181,0.01032216,-0.01826418,0.00804565
 ,-0.09210307,0.09053351,-0.04009466,0.00139773,-0.00087770,-0.00014540
 ,-0.00035076,-0.00019884,-0.00001928,0.00005397,0.00001921,-0.00002305
 ,-0.00000701,0.00000282,-0.00003635,-0.00028650,0.00007224,-0.00011413
 ,-0.00017923,0.00014299,0.00013743,0.00003140,0.00002637,0.00004182,-0
 .00010856,0.00065728,0.00005934,0.00090224,-0.00093946,-0.00010181,-0.
 00006629,0.00001487,0.00004532,0.00121646,0.00115025,0.00011521,-0.000
 12756,0.00031986,0.00038459,-0.00329438,0.00653688,-0.00307204,0.09859
 082,0.00096515,-0.00423371,0.00264717,0.00003006,-0.00040557,-0.000326
 36,0.00004115,0.00000621,-0.00007099,-0.00008932,0.00004055,-0.0000598
 4,0.00001933,-0.00019847,-0.00024999,0.00026453,0.00001996,0.00013880,
 -0.00000462,-0.00061675,-0.00022225,-0.00291521,-0.00324745,-0.0013692
 4,0.01109661,-0.01803306,0.00845055,0.08967711,-0.22527403,0.07846984,
 -0.00018320,0.00082170,-0.00056766,0.00011411,0.00008608,0.00003651,-0
 .00000924,0.00002367,0.00003399,-0.00001440,0.00000674,0.00000437,0.00
 010242,0.00003774,0.00004043,0.00007134,-0.00002610,-0.00001186,-0.000
 01180,-0.00001287,-0.00000101,0.00016640,-0.00031470,-0.00010731,0.000
 93970,-0.00112483,0.00008539,-0.00005254,0.00012395,0.00017290,0.00038
 816,0.00145277,-0.00062398,-0.00051438,-0.00040809,0.00028697,-0.00209
 993,0.00515084,-0.00094403,-0.09798143,0.24612539,0.00712710,-0.015213
 67,0.00522050,0.00015944,-0.00006678,-0.00027238,-0.00041800,0.0005352
 7,-0.00011370,-0.00047159,-0.00041465,-0.00010945,0.00029717,-0.000526
 00,-0.00016609,0.00001760,-0.00012677,0.00009036,0.00218115,-0.0016446
 6,-0.00103554,0.00090489,-0.00079729,0.00015484,0.00060283,-0.00280641
 ,-0.00004005,-0.04118365,0.08160193,-0.08363151,-0.00040696,-0.0002464
 6,0.00135726,0.00001497,0.00000390,0.00009535,0.00011923,0.00010396,0.
 00007928,0.00004048,-0.00001428,0.00003544,0.00019119,-0.00002765,0.00
 016291,0.00010800,0.00000452,-0.00004237,0.00000343,-0.00003319,0.0000
 2946,0.00008681,-0.00050131,-0.00009954,-0.00010180,-0.00008540,0.0001
 9460,0.00017611,-0.00035678,0.00015148,0.00056735,-0.00026287,0.000864
 63,0.00006671,0.00025853,-0.00008925,-0.01256375,0.02642844,-0.0110802
 4,0.04248130,-0.08581240,0.08824400\\0.00001700,-0.00009866,-0.0000079
 2,0.00000142,0.00001563,0.00000412,0.00001424,-0.00011963,0.00004216,0
 .00002109,0.00011951,0.00004134,-0.00000135,-0.00001581,0.00000346,-0.
 00002551,0.00000003,-0.00006308,0.00001613,0.00009890,-0.00000721,-0.0
 0003730,0.00001522,-0.00002606,0.00009619,0.00000003,0.00005100,-0.000
 03705,-0.00001540,-0.00002621,-0.00000627,-0.00001456,-0.00000585,-0.0
 0000330,-0.00002161,0.00001027,-0.00001349,0.00000633,-0.00001597,-0.0
 0001305,-0.00000647,-0.00001627,-0.00000350,0.00002171,0.00001090,-0.0
 0003110,0.00000011,0.00000213,-0.00002357,-0.00000031,-0.00000736,-0.0
 0000608,0.00001465,-0.00000616,0.00001508,0.00000393,0.00000625,0.0000
 0851,0.00001100,0.00000704,-0.00000484,0.00000009,-0.00000214,-0.00000
 663,0.00000004,-0.00000728,0.00000847,-0.00001119,0.00000660,0.0000148
 9,-0.00000354,0.00000626\\\@
 The archive entry for this job was punched.


 THE MORE POWERFUL THE METHOD, THE MORE CATASTROPHIC THE ERRORS.
     -- M.D. KAMEN
 Job cpu time:       0 days  1 hours 58 minutes 21.9 seconds.
 Elapsed time:       0 days  0 hours  7 minutes 30.9 seconds.
 File lengths (MBytes):  RWF=    294 Int=      0 D2E=      0 Chk=     14 Scr=      1
 Normal termination of Gaussian 16 at Tue Sep  6 23:10:50 2022.
