Job Start Time: Tue Sep  6 22:59:22 MDT 2022
SLURM Job ID: 71234
SLURM Job Name: TS3_crest_conf_1
 Entering Gaussian System, Link 0=/opt/apps/Gaussian/G16C/g16/g16
 Initial command:
 /opt/apps/Gaussian/G16C/g16/l1.exe "/tmp/Gau-2853170.inp" -scrdir="/tmp/"
 Entering Link 1 = /opt/apps/Gaussian/G16C/g16/l1.exe PID=   2853171.
  
 Copyright (c) 1988-2019, Gaussian, Inc.  All Rights Reserved.
  
 This is part of the Gaussian(R) 16 program.  It is based on
 the Gaussian(R) 09 system (copyright 2009, Gaussian, Inc.),
 the Gaussian(R) 03 system (copyright 2003, Gaussian, Inc.),
 the Gaussian(R) 98 system (copyright 1998, Gaussian, Inc.),
 the Gaussian(R) 94 system (copyright 1995, Gaussian, Inc.),
 the Gaussian 92(TM) system (copyright 1992, Gaussian, Inc.),
 the Gaussian 90(TM) system (copyright 1990, Gaussian, Inc.),
 the Gaussian 88(TM) system (copyright 1988, Gaussian, Inc.),
 the Gaussian 86(TM) system (copyright 1986, Carnegie Mellon
 University), and the Gaussian 82(TM) system (copyright 1983,
 Carnegie Mellon University). Gaussian is a federally registered
 trademark of Gaussian, Inc.
  
 This software contains proprietary and confidential information,
 including trade secrets, belonging to Gaussian, Inc.
  
 This software is provided under written license and may be
 used, copied, transmitted, or stored only in accord with that
 written license.
  
 The following legend is applicable only to US Government
 contracts under FAR:
  
                    RESTRICTED RIGHTS LEGEND
  
 Use, reproduction and disclosure by the US Government is
 subject to restrictions as set forth in subparagraphs (a)
 and (c) of the Commercial Computer Software - Restricted
 Rights clause in FAR 52.227-19.
  
 Gaussian, Inc.
 340 Quinnipiac St., Bldg. 40, Wallingford CT 06492
  
  
 ---------------------------------------------------------------
 Warning -- This program may not be used in any manner that
 competes with the business of Gaussian, Inc. or will provide
 assistance to any competitor of Gaussian, Inc.  The licensee
 of this program is prohibited from giving any competitor of
 Gaussian, Inc. access to this program.  By using this program,
 the user acknowledges that Gaussian, Inc. is engaged in the
 business of creating and licensing software in the field of
 computational chemistry and represents and warrants to the
 licensee that it is not a competitor of Gaussian, Inc. and that
 it will not use this program in any manner prohibited above.
 ---------------------------------------------------------------
  

 Cite this work as:
 Gaussian 16, Revision C.01,
 M. J. Frisch, G. W. Trucks, H. B. Schlegel, G. E. Scuseria, 
 M. A. Robb, J. R. Cheeseman, G. Scalmani, V. Barone, 
 G. A. Petersson, H. Nakatsuji, X. Li, M. Caricato, A. V. Marenich, 
 J. Bloino, B. G. Janesko, R. Gomperts, B. Mennucci, H. P. Hratchian, 
 J. V. Ortiz, A. F. Izmaylov, J. L. Sonnenberg, D. Williams-Young, 
 F. Ding, F. Lipparini, F. Egidi, J. Goings, B. Peng, A. Petrone, 
 T. Henderson, D. Ranasinghe, V. G. Zakrzewski, J. Gao, N. Rega, 
 G. Zheng, W. Liang, M. Hada, M. Ehara, K. Toyota, R. Fukuda, 
 J. Hasegawa, M. Ishida, T. Nakajima, Y. Honda, O. Kitao, H. Nakai, 
 T. Vreven, K. Throssell, J. A. Montgomery, Jr., J. E. Peralta, 
 F. Ogliaro, M. J. Bearpark, J. J. Heyd, E. N. Brothers, K. N. Kudin, 
 V. N. Staroverov, T. A. Keith, R. Kobayashi, J. Normand, 
 K. Raghavachari, A. P. Rendell, J. C. Burant, S. S. Iyengar, 
 J. Tomasi, M. Cossi, J. M. Millam, M. Klene, C. Adamo, R. Cammi, 
 J. W. Ochterski, R. L. Martin, K. Morokuma, O. Farkas, 
 J. B. Foresman, and D. J. Fox, Gaussian, Inc., Wallingford CT, 2019.
 
 ******************************************
 Gaussian 16:  AS64L-G16RevC.01  3-Jul-2019
                 6-Sep-2022 
 ******************************************
 %nprocshared=16
 Will use up to   16 processors via shared memory.
 %mem=72GB
 ---------------------------------------------
 # B3LYP/def2tzvp opt=(ts,calcfc,noeigen) freq
 ---------------------------------------------
 1/5=1,10=4,11=1,18=20,26=3,38=1/1,3;
 2/9=110,12=2,17=6,18=5,40=1/2;
 3/5=44,7=101,11=2,25=1,30=1,71=2,74=-5,140=1/1,2,3;
 4//1;
 5/5=2,38=5/2;
 8/6=4,10=90,11=11/1;
 11/6=1,8=1,9=11,15=111,16=1/1,2,10;
 10/6=1,13=1/2;
 6/7=2,8=2,9=2,10=2,28=1/1;
 7/10=1,25=1/1,2,3,16;
 1/5=1,10=4,11=1,18=20,26=3/3(2);
 2/9=110/2;
 99//99;
 2/9=110/2;
 3/5=44,7=101,11=2,25=1,30=1,71=1,74=-5/1,2,3;
 4/5=5,16=3,69=1/1;
 5/5=2,38=5/2;
 7//1,2,3,16;
 1/5=1,11=1,18=20,26=3/3(-5);
 2/9=110/2;
 6/7=2,8=2,9=2,10=2,19=2,28=1/1;
 99/9=1/99;
 ----------------
 TS3_crest_conf_1
 ----------------
 Symbolic Z-matrix:
 Charge =  0 Multiplicity = 1
 C                    -1.4206    1.1518    0.0772 
 C                    -1.13      0.7102   -1.1746 
 C                    -1.1303   -0.711    -1.174 
 C                    -1.4211   -1.1515    0.0781 
 C                    -1.9526    0.0006    0.8709 
 C                     0.6808   -0.6743    1.021 
 C                     0.6809    0.6745    1.0207 
 C                     1.6788    1.2191    0.0368 
 C                     2.0588   -0.0002   -0.8154 
 C                     1.6785   -1.2192    0.037 
 H                    -1.5551    2.1782    0.3708 
 H                    -0.8432    1.3195   -2.0136 
 H                    -0.8438   -1.3212   -2.0125 
 H                    -1.556    -2.1776    0.3726 
 H                    -1.7177    0.0009    1.9309 
 H                    -3.0463    0.0007    0.7789 
 H                     0.2972   -1.3045    1.8035 
 H                     0.2973    1.3051    1.803 
 H                     1.2895    2.0412   -0.5634 
 H                     2.5466    1.5969    0.5883 
 H                     3.1149   -0.0002   -1.082 
 H                     1.4793   -0.0001   -1.737 
 H                     2.5463   -1.5973    0.5884 
 H                     1.2889   -2.0413   -0.5631 
 
 Add virtual bond connecting atoms C6         and C4         Dist= 4.45D+00.
 Add virtual bond connecting atoms C7         and C1         Dist= 4.45D+00.
 Add virtual bond connecting atoms H17        and C4         Dist= 4.61D+00.
 Add virtual bond connecting atoms H17        and H14        Dist= 4.72D+00.
 Add virtual bond connecting atoms H17        and H15        Dist= 4.54D+00.

 GradGradGradGradGradGradGradGradGradGradGradGradGradGradGradGradGradGrad
 Berny optimization.
 Initialization pass.
                           ----------------------------
                           !    Initial Parameters    !
                           ! (Angstroms and Degrees)  !
 --------------------------                            --------------------------
 ! Name  Definition              Value          Derivative Info.                !
 --------------------------------------------------------------------------------
 ! R1    R(1,2)                  1.3588         calculate D2E/DX2 analytically  !
 ! R2    R(1,5)                  1.4961         calculate D2E/DX2 analytically  !
 ! R3    R(1,7)                  2.3525         calculate D2E/DX2 analytically  !
 ! R4    R(1,11)                 1.076          calculate D2E/DX2 analytically  !
 ! R5    R(2,3)                  1.4212         calculate D2E/DX2 analytically  !
 ! R6    R(2,12)                 1.0758         calculate D2E/DX2 analytically  !
 ! R7    R(3,4)                  1.3588         calculate D2E/DX2 analytically  !
 ! R8    R(3,13)                 1.0759         calculate D2E/DX2 analytically  !
 ! R9    R(4,5)                  1.4961         calculate D2E/DX2 analytically  !
 ! R10   R(4,6)                  2.3526         calculate D2E/DX2 analytically  !
 ! R11   R(4,14)                 1.076          calculate D2E/DX2 analytically  !
 ! R12   R(4,17)                 2.4399         calculate D2E/DX2 analytically  !
 ! R13   R(5,15)                 1.0857         calculate D2E/DX2 analytically  !
 ! R14   R(5,16)                 1.0976         calculate D2E/DX2 analytically  !
 ! R15   R(6,7)                  1.3488         calculate D2E/DX2 analytically  !
 ! R16   R(6,10)                 1.5035         calculate D2E/DX2 analytically  !
 ! R17   R(6,17)                 1.0755         calculate D2E/DX2 analytically  !
 ! R18   R(7,8)                  1.5035         calculate D2E/DX2 analytically  !
 ! R19   R(7,18)                 1.0755         calculate D2E/DX2 analytically  !
 ! R20   R(8,9)                  1.5354         calculate D2E/DX2 analytically  !
 ! R21   R(8,19)                 1.0898         calculate D2E/DX2 analytically  !
 ! R22   R(8,20)                 1.0954         calculate D2E/DX2 analytically  !
 ! R23   R(9,10)                 1.5353         calculate D2E/DX2 analytically  !
 ! R24   R(9,21)                 1.0892         calculate D2E/DX2 analytically  !
 ! R25   R(9,22)                 1.0887         calculate D2E/DX2 analytically  !
 ! R26   R(10,23)                1.0955         calculate D2E/DX2 analytically  !
 ! R27   R(10,24)                1.0898         calculate D2E/DX2 analytically  !
 ! R28   R(14,17)                2.4988         calculate D2E/DX2 analytically  !
 ! R29   R(15,17)                2.4042         calculate D2E/DX2 analytically  !
 ! A1    A(2,1,5)              108.3432         calculate D2E/DX2 analytically  !
 ! A2    A(2,1,7)               96.459          calculate D2E/DX2 analytically  !
 ! A3    A(2,1,11)             126.0221         calculate D2E/DX2 analytically  !
 ! A4    A(5,1,7)               87.0631         calculate D2E/DX2 analytically  !
 ! A5    A(5,1,11)             123.0108         calculate D2E/DX2 analytically  !
 ! A6    A(7,1,11)             101.2894         calculate D2E/DX2 analytically  !
 ! A7    A(1,2,3)              108.9382         calculate D2E/DX2 analytically  !
 ! A8    A(1,2,12)             126.2551         calculate D2E/DX2 analytically  !
 ! A9    A(3,2,12)             124.5229         calculate D2E/DX2 analytically  !
 ! A10   A(2,3,4)              108.9423         calculate D2E/DX2 analytically  !
 ! A11   A(2,3,13)             124.526          calculate D2E/DX2 analytically  !
 ! A12   A(4,3,13)             126.2484         calculate D2E/DX2 analytically  !
 ! A13   A(3,4,5)              108.3416         calculate D2E/DX2 analytically  !
 ! A14   A(3,4,6)               96.451          calculate D2E/DX2 analytically  !
 ! A15   A(3,4,14)             126.0276         calculate D2E/DX2 analytically  !
 ! A16   A(3,4,17)             121.4157         calculate D2E/DX2 analytically  !
 ! A17   A(5,4,6)               87.0661         calculate D2E/DX2 analytically  !
 ! A18   A(5,4,14)             123.0088         calculate D2E/DX2 analytically  !
 ! A19   A(5,4,17)              85.6268         calculate D2E/DX2 analytically  !
 ! A20   A(6,4,14)             101.2882         calculate D2E/DX2 analytically  !
 ! A21   A(1,5,4)              100.6666         calculate D2E/DX2 analytically  !
 ! A22   A(1,5,15)             116.1554         calculate D2E/DX2 analytically  !
 ! A23   A(1,5,16)             108.0475         calculate D2E/DX2 analytically  !
 ! A24   A(4,5,15)             116.149          calculate D2E/DX2 analytically  !
 ! A25   A(4,5,16)             108.0385         calculate D2E/DX2 analytically  !
 ! A26   A(15,5,16)            107.3033         calculate D2E/DX2 analytically  !
 ! A27   A(4,6,7)              101.7017         calculate D2E/DX2 analytically  !
 ! A28   A(4,6,10)             104.8949         calculate D2E/DX2 analytically  !
 ! A29   A(7,6,10)             111.2367         calculate D2E/DX2 analytically  !
 ! A30   A(7,6,17)             125.8858         calculate D2E/DX2 analytically  !
 ! A31   A(10,6,17)            120.0334         calculate D2E/DX2 analytically  !
 ! A32   A(1,7,6)              101.7073         calculate D2E/DX2 analytically  !
 ! A33   A(1,7,8)              104.8895         calculate D2E/DX2 analytically  !
 ! A34   A(1,7,18)              81.6138         calculate D2E/DX2 analytically  !
 ! A35   A(6,7,8)              111.249          calculate D2E/DX2 analytically  !
 ! A36   A(6,7,18)             125.8821         calculate D2E/DX2 analytically  !
 ! A37   A(8,7,18)             120.0223         calculate D2E/DX2 analytically  !
 ! A38   A(7,8,9)              103.8773         calculate D2E/DX2 analytically  !
 ! A39   A(7,8,19)             113.3639         calculate D2E/DX2 analytically  !
 ! A40   A(7,8,20)             108.7394         calculate D2E/DX2 analytically  !
 ! A41   A(9,8,19)             112.445          calculate D2E/DX2 analytically  !
 ! A42   A(9,8,20)             110.9323         calculate D2E/DX2 analytically  !
 ! A43   A(19,8,20)            107.4636         calculate D2E/DX2 analytically  !
 ! A44   A(8,9,10)             105.1333         calculate D2E/DX2 analytically  !
 ! A45   A(8,9,21)             112.0753         calculate D2E/DX2 analytically  !
 ! A46   A(8,9,22)             109.7586         calculate D2E/DX2 analytically  !
 ! A47   A(10,9,21)            112.0897         calculate D2E/DX2 analytically  !
 ! A48   A(10,9,22)            109.7685         calculate D2E/DX2 analytically  !
 ! A49   A(21,9,22)            107.9939         calculate D2E/DX2 analytically  !
 ! A50   A(6,10,9)             103.8851         calculate D2E/DX2 analytically  !
 ! A51   A(6,10,23)            108.7433         calculate D2E/DX2 analytically  !
 ! A52   A(6,10,24)            113.3615         calculate D2E/DX2 analytically  !
 ! A53   A(9,10,23)            110.9326         calculate D2E/DX2 analytically  !
 ! A54   A(9,10,24)            112.4428         calculate D2E/DX2 analytically  !
 ! A55   A(23,10,24)           107.4568         calculate D2E/DX2 analytically  !
 ! A56   A(5,15,17)             97.4371         calculate D2E/DX2 analytically  !
 ! A57   A(4,17,15)             54.0698         calculate D2E/DX2 analytically  !
 ! A58   A(6,17,14)             93.0169         calculate D2E/DX2 analytically  !
 ! A59   A(6,17,15)             91.1068         calculate D2E/DX2 analytically  !
 ! A60   A(14,17,15)            66.329          calculate D2E/DX2 analytically  !
 ! D1    D(5,1,2,3)            -13.7936         calculate D2E/DX2 analytically  !
 ! D2    D(5,1,2,12)           172.1308         calculate D2E/DX2 analytically  !
 ! D3    D(7,1,2,3)             75.2445         calculate D2E/DX2 analytically  !
 ! D4    D(7,1,2,12)           -98.8311         calculate D2E/DX2 analytically  !
 ! D5    D(11,1,2,3)          -175.7348         calculate D2E/DX2 analytically  !
 ! D6    D(11,1,2,12)           10.1897         calculate D2E/DX2 analytically  !
 ! D7    D(2,1,5,4)             20.6876         calculate D2E/DX2 analytically  !
 ! D8    D(2,1,5,15)           146.9947         calculate D2E/DX2 analytically  !
 ! D9    D(2,1,5,16)           -92.4397         calculate D2E/DX2 analytically  !
 ! D10   D(7,1,5,4)            -75.1471         calculate D2E/DX2 analytically  !
 ! D11   D(7,1,5,15)            51.1599         calculate D2E/DX2 analytically  !
 ! D12   D(7,1,5,16)           171.7255         calculate D2E/DX2 analytically  !
 ! D13   D(11,1,5,4)          -176.7091         calculate D2E/DX2 analytically  !
 ! D14   D(11,1,5,15)          -50.402          calculate D2E/DX2 analytically  !
 ! D15   D(11,1,5,16)           70.1636         calculate D2E/DX2 analytically  !
 ! D16   D(2,1,7,6)            -69.0693         calculate D2E/DX2 analytically  !
 ! D17   D(2,1,7,8)             46.912          calculate D2E/DX2 analytically  !
 ! D18   D(2,1,7,18)           165.8667         calculate D2E/DX2 analytically  !
 ! D19   D(5,1,7,6)             39.07           calculate D2E/DX2 analytically  !
 ! D20   D(5,1,7,8)            155.0512         calculate D2E/DX2 analytically  !
 ! D21   D(5,1,7,18)           -85.994          calculate D2E/DX2 analytically  !
 ! D22   D(11,1,7,6)           162.1654         calculate D2E/DX2 analytically  !
 ! D23   D(11,1,7,8)           -81.8533         calculate D2E/DX2 analytically  !
 ! D24   D(11,1,7,18)           37.1014         calculate D2E/DX2 analytically  !
 ! D25   D(1,2,3,4)              0.0013         calculate D2E/DX2 analytically  !
 ! D26   D(1,2,3,13)          -174.2048         calculate D2E/DX2 analytically  !
 ! D27   D(12,2,3,4)           174.2032         calculate D2E/DX2 analytically  !
 ! D28   D(12,2,3,13)           -0.0029         calculate D2E/DX2 analytically  !
 ! D29   D(2,3,4,5)             13.791          calculate D2E/DX2 analytically  !
 ! D30   D(2,3,4,6)            -75.2475         calculate D2E/DX2 analytically  !
 ! D31   D(2,3,4,14)           175.7376         calculate D2E/DX2 analytically  !
 ! D32   D(2,3,4,17)           -82.4294         calculate D2E/DX2 analytically  !
 ! D33   D(13,3,4,5)          -172.1284         calculate D2E/DX2 analytically  !
 ! D34   D(13,3,4,6)            98.8332         calculate D2E/DX2 analytically  !
 ! D35   D(13,3,4,14)          -10.1817         calculate D2E/DX2 analytically  !
 ! D36   D(13,3,4,17)           91.6512         calculate D2E/DX2 analytically  !
 ! D37   D(3,4,5,1)            -20.6865         calculate D2E/DX2 analytically  !
 ! D38   D(3,4,5,15)          -146.9978         calculate D2E/DX2 analytically  !
 ! D39   D(3,4,5,16)            92.4478         calculate D2E/DX2 analytically  !
 ! D40   D(6,4,5,1)             75.1409         calculate D2E/DX2 analytically  !
 ! D41   D(6,4,5,15)           -51.1704         calculate D2E/DX2 analytically  !
 ! D42   D(6,4,5,16)          -171.7249         calculate D2E/DX2 analytically  !
 ! D43   D(14,4,5,1)           176.7033         calculate D2E/DX2 analytically  !
 ! D44   D(14,4,5,15)           50.392          calculate D2E/DX2 analytically  !
 ! D45   D(14,4,5,16)          -70.1625         calculate D2E/DX2 analytically  !
 ! D46   D(17,4,5,1)           101.0081         calculate D2E/DX2 analytically  !
 ! D47   D(17,4,5,15)          -25.3032         calculate D2E/DX2 analytically  !
 ! D48   D(17,4,5,16)         -145.8576         calculate D2E/DX2 analytically  !
 ! D49   D(3,4,6,7)             69.0951         calculate D2E/DX2 analytically  !
 ! D50   D(3,4,6,10)           -46.8724         calculate D2E/DX2 analytically  !
 ! D51   D(5,4,6,7)            -39.0429         calculate D2E/DX2 analytically  !
 ! D52   D(5,4,6,10)          -155.0104         calculate D2E/DX2 analytically  !
 ! D53   D(14,4,6,7)          -162.1368         calculate D2E/DX2 analytically  !
 ! D54   D(14,4,6,10)           81.8957         calculate D2E/DX2 analytically  !
 ! D55   D(3,4,17,15)          121.2058         calculate D2E/DX2 analytically  !
 ! D56   D(5,4,17,15)           12.3552         calculate D2E/DX2 analytically  !
 ! D57   D(1,5,15,17)          -92.2289         calculate D2E/DX2 analytically  !
 ! D58   D(4,5,15,17)           25.859          calculate D2E/DX2 analytically  !
 ! D59   D(16,5,15,17)         146.8071         calculate D2E/DX2 analytically  !
 ! D60   D(4,6,7,1)             -0.0122         calculate D2E/DX2 analytically  !
 ! D61   D(4,6,7,8)           -111.2436         calculate D2E/DX2 analytically  !
 ! D62   D(4,6,7,18)            88.0438         calculate D2E/DX2 analytically  !
 ! D63   D(10,6,7,1)           111.2181         calculate D2E/DX2 analytically  !
 ! D64   D(10,6,7,8)            -0.0134         calculate D2E/DX2 analytically  !
 ! D65   D(10,6,7,18)         -160.7259         calculate D2E/DX2 analytically  !
 ! D66   D(17,6,7,1)           -88.0592         calculate D2E/DX2 analytically  !
 ! D67   D(17,6,7,8)           160.7094         calculate D2E/DX2 analytically  !
 ! D68   D(17,6,7,18)           -0.0032         calculate D2E/DX2 analytically  !
 ! D69   D(4,6,10,9)            96.0054         calculate D2E/DX2 analytically  !
 ! D70   D(4,6,10,23)         -145.7969         calculate D2E/DX2 analytically  !
 ! D71   D(4,6,10,24)          -26.3483         calculate D2E/DX2 analytically  !
 ! D72   D(7,6,10,9)           -13.1737         calculate D2E/DX2 analytically  !
 ! D73   D(7,6,10,23)          105.024          calculate D2E/DX2 analytically  !
 ! D74   D(7,6,10,24)         -135.5274         calculate D2E/DX2 analytically  !
 ! D75   D(17,6,10,9)         -175.1773         calculate D2E/DX2 analytically  !
 ! D76   D(17,6,10,23)         -56.9796         calculate D2E/DX2 analytically  !
 ! D77   D(17,6,10,24)          62.469          calculate D2E/DX2 analytically  !
 ! D78   D(7,6,17,14)          113.1813         calculate D2E/DX2 analytically  !
 ! D79   D(7,6,17,15)           46.8281         calculate D2E/DX2 analytically  !
 ! D80   D(10,6,17,14)         -87.6394         calculate D2E/DX2 analytically  !
 ! D81   D(10,6,17,15)        -153.9926         calculate D2E/DX2 analytically  !
 ! D82   D(1,7,8,9)            -95.9943         calculate D2E/DX2 analytically  !
 ! D83   D(1,7,8,19)            26.3582         calculate D2E/DX2 analytically  !
 ! D84   D(1,7,8,20)           145.8143         calculate D2E/DX2 analytically  !
 ! D85   D(6,7,8,9)             13.1937         calculate D2E/DX2 analytically  !
 ! D86   D(6,7,8,19)           135.5462         calculate D2E/DX2 analytically  !
 ! D87   D(6,7,8,20)          -104.9977         calculate D2E/DX2 analytically  !
 ! D88   D(18,7,8,9)           175.189          calculate D2E/DX2 analytically  !
 ! D89   D(18,7,8,19)          -62.4584         calculate D2E/DX2 analytically  !
 ! D90   D(18,7,8,20)           56.9976         calculate D2E/DX2 analytically  !
 ! D91   D(7,8,9,10)           -20.4733         calculate D2E/DX2 analytically  !
 ! D92   D(7,8,9,21)          -142.4833         calculate D2E/DX2 analytically  !
 ! D93   D(7,8,9,22)            97.5243         calculate D2E/DX2 analytically  !
 ! D94   D(19,8,9,10)         -143.4317         calculate D2E/DX2 analytically  !
 ! D95   D(19,8,9,21)           94.5584         calculate D2E/DX2 analytically  !
 ! D96   D(19,8,9,22)          -25.434          calculate D2E/DX2 analytically  !
 ! D97   D(20,8,9,10)           96.1938         calculate D2E/DX2 analytically  !
 ! D98   D(20,8,9,21)          -25.8161         calculate D2E/DX2 analytically  !
 ! D99   D(20,8,9,22)         -145.8086         calculate D2E/DX2 analytically  !
 ! D100  D(8,9,10,6)            20.4677         calculate D2E/DX2 analytically  !
 ! D101  D(8,9,10,23)          -96.2085         calculate D2E/DX2 analytically  !
 ! D102  D(8,9,10,24)          143.427          calculate D2E/DX2 analytically  !
 ! D103  D(21,9,10,6)          142.4682         calculate D2E/DX2 analytically  !
 ! D104  D(21,9,10,23)          25.7921         calculate D2E/DX2 analytically  !
 ! D105  D(21,9,10,24)         -94.5724         calculate D2E/DX2 analytically  !
 ! D106  D(22,9,10,6)          -97.5232         calculate D2E/DX2 analytically  !
 ! D107  D(22,9,10,23)         145.8007         calculate D2E/DX2 analytically  !
 ! D108  D(22,9,10,24)          25.4361         calculate D2E/DX2 analytically  !
 ! D109  D(5,15,17,4)          -17.2468         calculate D2E/DX2 analytically  !
 ! D110  D(5,15,17,6)           50.1303         calculate D2E/DX2 analytically  !
 ! D111  D(5,15,17,14)         -42.6786         calculate D2E/DX2 analytically  !
 --------------------------------------------------------------------------------
 Trust Radius=3.00D-01 FncErr=1.00D-07 GrdErr=1.00D-06 EigMax=2.50D+02 EigMin=1.00D-04
 Number of steps in this run=    144 maximum allowed number of steps=    144.
 Search for a saddle point of order  1.
 GradGradGradGradGradGradGradGradGradGradGradGradGradGradGradGradGradGrad

                          Input orientation:                          
 ---------------------------------------------------------------------
 Center     Atomic      Atomic             Coordinates (Angstroms)
 Number     Number       Type             X           Y           Z
 ---------------------------------------------------------------------
      1          6           0       -1.420600    1.151800    0.077200
      2          6           0       -1.130000    0.710200   -1.174600
      3          6           0       -1.130300   -0.711000   -1.174000
      4          6           0       -1.421100   -1.151500    0.078100
      5          6           0       -1.952600    0.000600    0.870900
      6          6           0        0.680800   -0.674300    1.021000
      7          6           0        0.680900    0.674500    1.020700
      8          6           0        1.678800    1.219100    0.036800
      9          6           0        2.058800   -0.000200   -0.815400
     10          6           0        1.678500   -1.219200    0.037000
     11          1           0       -1.555100    2.178200    0.370800
     12          1           0       -0.843200    1.319500   -2.013600
     13          1           0       -0.843800   -1.321200   -2.012500
     14          1           0       -1.556000   -2.177600    0.372600
     15          1           0       -1.717700    0.000900    1.930900
     16          1           0       -3.046300    0.000700    0.778900
     17          1           0        0.297200   -1.304500    1.803500
     18          1           0        0.297300    1.305100    1.803000
     19          1           0        1.289500    2.041200   -0.563400
     20          1           0        2.546600    1.596900    0.588300
     21          1           0        3.114900   -0.000200   -1.082000
     22          1           0        1.479300   -0.000100   -1.737000
     23          1           0        2.546300   -1.597300    0.588400
     24          1           0        1.288900   -2.041300   -0.563100
 ---------------------------------------------------------------------
                    Distance matrix (angstroms):
                    1          2          3          4          5
     1  C    0.000000
     2  C    1.358846   0.000000
     3  C    2.262697   1.421200   0.000000
     4  C    2.303300   2.262725   1.358808   0.000000
     5  C    1.496077   2.316090   2.316067   1.496114   0.000000
     6  C    2.939606   3.164885   2.845954   2.352608   2.722649
     7  C    2.352511   2.846046   3.164927   2.939588   2.722481
     8  C    3.100394   3.100940   3.616955   3.902670   3.920144
     9  C    3.772276   3.286661   3.286973   3.772736   4.351429
    10  C    3.902266   3.616384   3.100669   3.100612   3.920228
    11  H    1.076006   2.173475   3.303686   3.345225   2.269372
    12  H    2.175536   1.075835   2.215916   3.288620   3.360150
    13  H    3.288658   2.215981   1.075876   2.175473   3.360147
    14  H    3.345220   3.303739   2.173501   1.076016   2.269394
    15  H    2.202054   3.239233   3.239173   2.202014   1.085715
    16  H    2.111946   2.826970   2.826905   2.111862   1.097563
    17  H    3.458953   3.868462   3.354922   2.439871   2.763083
    18  H    2.439891   3.355174   3.868492   3.458766   2.762713
    19  H    2.923362   2.828269   3.715221   4.237005   4.090535
    20  H    4.024676   4.172702   4.685264   4.853519   4.782346
    21  H    4.820955   4.304930   4.305279   4.821475   5.430780
    22  H    3.609379   2.762113   2.762673   3.610073   4.310346
    23  H    4.853367   4.684859   4.172406   4.024849   4.782593
    24  H    4.236421   3.714265   2.827618   2.923522   4.090603
                    6          7          8          9         10
     6  C    0.000000
     7  C    1.348800   0.000000
     8  C    2.355763   1.503480   0.000000
     9  C    2.392835   2.392716   1.535362   0.000000
    10  C    1.503522   2.355625   2.438300   1.535309   0.000000
    11  H    3.682223   2.771855   3.389622   4.383237   4.702118
    12  H    3.937844   3.456282   3.251877   3.405715   4.124188
    13  H    3.456155   3.937998   4.125078   3.406344   3.251592
    14  H    2.771932   3.682150   4.702581   4.383970   3.390155
    15  H    2.652662   2.652448   4.075272   4.669488   4.075497
    16  H    3.795459   3.795325   4.935765   5.348256   4.935819
    17  H    1.075457   2.162508   3.376182   3.415124   2.244056
    18  H    2.162550   1.075546   2.243970   3.415071   3.376175
    19  H    3.202308   2.178907   1.089790   2.196051   3.337965
    20  H    2.970991   2.125706   1.095428   2.181525   2.997991
    21  H    3.286619   3.286476   2.191070   1.089230   2.191202
    22  H    2.949358   2.949142   2.161623   1.088654   2.161703
    23  H    2.125832   2.971140   2.998154   2.181522   1.095481
    24  H    2.178956   3.202133   3.337980   2.196017   1.089842
                   11         12         13         14         15
    11  H    0.000000
    12  H    2.632400   0.000000
    13  H    4.293235   2.640700   0.000000
    14  H    4.355800   4.293221   2.632366   0.000000
    15  H    2.683465   4.250004   4.249947   2.683339   0.000000
    16  H    2.670530   3.793539   3.793460   2.670405   1.758489
    17  H    4.196766   4.770340   3.982966   2.498825   2.404188
    18  H    2.498977   3.983388   4.770493   4.196423   2.403647
    19  H    2.997207   2.678123   4.237522   5.174093   4.407676
    20  H    4.148392   4.282240   5.174387   5.578952   4.747004
    21  H    5.353966   4.275049   4.275766   5.354833   5.694874
    22  H    4.288985   2.685490   2.686633   4.290101   4.865624
    23  H    5.578820   5.173668   4.281786   4.148757   4.747446
    24  H    5.173460   4.236128   2.677259   2.997927   4.407977
                   16         17         18         19         20
    16  H    0.000000
    17  H    3.732606   0.000000
    18  H    3.732278   2.609600   0.000000
    19  H    4.976401   4.216703   2.669486   0.000000
    20  H    5.819340   3.867122   2.572935   1.761850   0.000000
    21  H    6.436096   4.238719   4.238620   2.787175   2.379831
    22  H    5.177915   3.953980   3.953767   2.362259   3.016050
    23  H    5.819542   2.573063   3.867451   4.018068   3.194200
    24  H    4.976413   2.669670   4.216645   4.082500   4.017963
                   21         22         23         24
    21  H    0.000000
    22  H    1.761878   0.000000
    23  H    2.379973   3.016127   0.000000
    24  H    2.787404   2.362370   1.761858   0.000000
 Stoichiometry    C10H14
 Framework group  C1[X(C10H14)]
 Deg. of freedom    66
 Full point group                 C1      NOp   1
 Largest Abelian subgroup         C1      NOp   1
 Largest concise Abelian subgroup C1      NOp   1
                         Standard orientation:                         
 ---------------------------------------------------------------------
 Center     Atomic      Atomic             Coordinates (Angstroms)
 Number     Number       Type             X           Y           Z
 ---------------------------------------------------------------------
      1          6           0       -1.444338   -1.151799   -0.031943
      2          6           0       -1.116173   -0.710191    1.210536
      3          6           0       -1.116494    0.711009    1.209938
      4          6           0       -1.444869    1.151501   -0.032839
      5          6           0       -2.000001   -0.000604   -0.809268
      6          6           0        0.627684    0.674300   -1.038607
      7          6           0        0.627795   -0.674500   -1.038303
      8          6           0        1.654873   -1.219094   -0.084897
      9          6           0        2.060362    0.000212    0.755466
     10          6           0        1.654563    1.219206   -0.085101
     11          1           0       -1.587617   -2.178200   -0.321353
     12          1           0       -0.804236   -1.319486    2.040522
     13          1           0       -0.804874    1.321214    2.039427
     14          1           0       -1.588578    2.177600   -0.323149
     15          1           0       -1.797129   -0.000909   -1.875861
     16          1           0       -3.090434   -0.000705   -0.684373
     17          1           0        0.220692    1.304495   -1.809203
     18          1           0        0.220811   -1.305105   -1.808693
     19          1           0        1.283826   -2.041191    0.526758
     20          1           0        2.505672   -1.596895   -0.662279
     21          1           0        3.124012    0.000215    0.990141
     22          1           0        1.508878    0.000116    1.694099
     23          1           0        2.505363    1.597305   -0.662387
     24          1           0        1.283210    2.041309    0.526455
 ---------------------------------------------------------------------
 Rotational constants (GHZ):           2.2880686           1.2572017           1.1967897
 Standard basis: def2TZVP (5D, 7F)
 There are   444 symmetry adapted cartesian basis functions of A   symmetry.
 There are   394 symmetry adapted basis functions of A   symmetry.
   394 basis functions,   622 primitive gaussians,   444 cartesian basis functions
    37 alpha electrons       37 beta electrons
       nuclear repulsion energy       545.8309837325 Hartrees.
 NAtoms=   24 NActive=   24 NUniq=   24 SFac= 1.00D+00 NAtFMM=   60 NAOKFM=F Big=F
 Integral buffers will be    131072 words long.
 Raffenetti 2 integral format.
 Two-electron integral symmetry is turned on.
 One-electron integrals computed using PRISM.
   1 Symmetry operations used in ECPInt.
 ECPInt:  NShTT=   13861 NPrTT=   40732 LenC2=   13680 LenP2D=   32408.
 LDataN:  DoStor=T MaxTD1= 6 Len=  172
 NBasis=   394 RedAO= T EigKep=  2.85D-05  NBF=   394
 NBsUse=   394 1.00D-06 EigRej= -1.00D+00 NBFU=   394
 ExpMin= 9.52D-02 ExpMax= 1.36D+04 ExpMxC= 4.63D+02 IAcc=3 IRadAn=         5 AccDes= 0.00D+00
 Harris functional with IExCor=  402 and IRadAn=       5 diagonalized for initial guess.
 HarFok:  IExCor=  402 AccDes= 0.00D+00 IRadAn=         5 IDoV= 1 UseB2=F ITyADJ=14
 ICtDFT=  3500011 ScaDFX=  1.000000  1.000000  1.000000  1.000000
 FoFCou: FMM=F IPFlag=           0 FMFlag=      100000 FMFlg1=           0
         NFxFlg=           0 DoJE=T BraDBF=F KetDBF=T FulRan=T
         wScrn=  0.000000 ICntrl=       500 IOpCl=  0 I1Cent=   200000004 NGrid=           0
         NMat0=    1 NMatS0=      1 NMatT0=    0 NMatD0=    1 NMtDS0=    0 NMtDT0=    0
 Petite list used in FoFCou.
 Requested convergence on RMS density matrix=1.00D-08 within 128 cycles.
 Requested convergence on MAX density matrix=1.00D-06.
 Requested convergence on             energy=1.00D-06.
 No special actions if energy rises.
 Integral accuracy reduced to 1.0D-05 until final iterations.
 Initial convergence to 1.0D-05 achieved.  Increase integral accuracy.
 SCF Done:  E(RB3LYP) =  -389.535849821     A.U. after   14 cycles
            NFock= 14  Conv=0.83D-08     -V/T= 2.0045
 DoSCS=F DFT=T ScalE2(SS,OS)=  1.000000  1.000000
 Range of M.O.s used for correlation:     1   394
 NBasis=   394 NAE=    37 NBE=    37 NFC=     0 NFV=     0
 NROrb=    394 NOA=    37 NOB=    37 NVA=   357 NVB=   357

 **** Warning!!: The largest alpha MO coefficient is  0.38793245D+02

   1 Symmetry operations used in ECPInt.
 ECPInt:  NShTT=   13861 NPrTT=   40732 LenC2=   13680 LenP2D=   32408.
 LDataN:  DoStor=T MaxTD1= 7 Len=  274
 Symmetrizing basis deriv contribution to polar:
 IMax=3 JMax=2 DiffMx= 0.00D+00
 G2DrvN: will do    25 centers at a time, making    1 passes.
 Calling FoFCou, ICntrl=  3107 FMM=F I1Cent=   0 AccDes= 0.00D+00.
 End of G2Drv F.D. properties file   721 does not exist.
 End of G2Drv F.D. properties file   722 does not exist.
 End of G2Drv F.D. properties file   788 does not exist.
          IDoAtm=111111111111111111111111
          Differentiating once with respect to nuclear coordinates.
 Keep R1 ints in memory in canonical form, NReq=3071699810.
          There are    75 degrees of freedom in the 1st order CPHF.  IDoFFX=6 NUNeed=     0.
     69 vectors produced by pass  0 Test12= 1.76D-14 1.33D-09 XBig12= 1.09D-01 1.24D-01.
 AX will form    69 AO Fock derivatives at one time.
     69 vectors produced by pass  1 Test12= 1.76D-14 1.33D-09 XBig12= 1.65D-02 4.09D-02.
     69 vectors produced by pass  2 Test12= 1.76D-14 1.33D-09 XBig12= 2.09D-04 2.17D-03.
     69 vectors produced by pass  3 Test12= 1.76D-14 1.33D-09 XBig12= 5.12D-07 9.59D-05.
     69 vectors produced by pass  4 Test12= 1.76D-14 1.33D-09 XBig12= 8.36D-10 4.21D-06.
     57 vectors produced by pass  5 Test12= 1.76D-14 1.33D-09 XBig12= 1.20D-12 1.18D-07.
     16 vectors produced by pass  6 Test12= 1.76D-14 1.33D-09 XBig12= 2.27D-15 5.59D-09.
 InvSVY:  IOpt=1 It=  1 EMax= 3.89D-16
 Solved reduced A of dimension   418 with    75 vectors.
 End of Minotr F.D. properties file   721 does not exist.
 End of Minotr F.D. properties file   722 does not exist.
 End of Minotr F.D. properties file   788 does not exist.

 **********************************************************************

            Population analysis using the SCF Density.

 **********************************************************************

 Orbital symmetries:
       Occupied  (A) (A) (A) (A) (A) (A) (A) (A) (A) (A) (A) (A)
                 (A) (A) (A) (A) (A) (A) (A) (A) (A) (A) (A) (A)
                 (A) (A) (A) (A) (A) (A) (A) (A) (A) (A) (A) (A)
                 (A)
       Virtual   (A) (A) (A) (A) (A) (A) (A) (A) (A) (A) (A) (A)
                 (A) (A) (A) (A) (A) (A) (A) (A) (A) (A) (A) (A)
                 (A) (A) (A) (A) (A) (A) (A) (A) (A) (A) (A) (A)
                 (A) (A) (A) (A) (A) (A) (A) (A) (A) (A) (A) (A)
                 (A) (A) (A) (A) (A) (A) (A) (A) (A) (A) (A) (A)
                 (A) (A) (A) (A) (A) (A) (A) (A) (A) (A) (A) (A)
                 (A) (A) (A) (A) (A) (A) (A) (A) (A) (A) (A) (A)
                 (A) (A) (A) (A) (A) (A) (A) (A) (A) (A) (A) (A)
                 (A) (A) (A) (A) (A) (A) (A) (A) (A) (A) (A) (A)
                 (A) (A) (A) (A) (A) (A) (A) (A) (A) (A) (A) (A)
                 (A) (A) (A) (A) (A) (A) (A) (A) (A) (A) (A) (A)
                 (A) (A) (A) (A) (A) (A) (A) (A) (A) (A) (A) (A)
                 (A) (A) (A) (A) (A) (A) (A) (A) (A) (A) (A) (A)
                 (A) (A) (A) (A) (A) (A) (A) (A) (A) (A) (A) (A)
                 (A) (A) (A) (A) (A) (A) (A) (A) (A) (A) (A) (A)
                 (A) (A) (A) (A) (A) (A) (A) (A) (A) (A) (A) (A)
                 (A) (A) (A) (A) (A) (A) (A) (A) (A) (A) (A) (A)
                 (A) (A) (A) (A) (A) (A) (A) (A) (A) (A) (A) (A)
                 (A) (A) (A) (A) (A) (A) (A) (A) (A) (A) (A) (A)
                 (A) (A) (A) (A) (A) (A) (A) (A) (A) (A) (A) (A)
                 (A) (A) (A) (A) (A) (A) (A) (A) (A) (A) (A) (A)
                 (A) (A) (A) (A) (A) (A) (A) (A) (A) (A) (A) (A)
                 (A) (A) (A) (A) (A) (A) (A) (A) (A) (A) (A) (A)
                 (A) (A) (A) (A) (A) (A) (A) (A) (A) (A) (A) (A)
                 (A) (A) (A) (A) (A) (A) (A) (A) (A) (A) (A) (A)
                 (A) (A) (A) (A) (A) (A) (A) (A) (A) (A) (A) (A)
                 (A) (A) (A) (A) (A) (A) (A) (A) (A) (A) (A) (A)
                 (A) (A) (A) (A) (A) (A) (A) (A) (A) (A) (A) (A)
                 (A) (A) (A) (A) (A) (A) (A) (A) (A) (A) (A) (A)
                 (A) (A) (A) (A) (A) (A) (A) (A) (A)
 The electronic state is 1-A.
 Alpha  occ. eigenvalues --  -10.17091 -10.17074 -10.17053 -10.15911 -10.15865
 Alpha  occ. eigenvalues --  -10.15728 -10.15727 -10.15581 -10.15576 -10.15502
 Alpha  occ. eigenvalues --   -0.87008  -0.83202  -0.71516  -0.71335  -0.69543
 Alpha  occ. eigenvalues --   -0.69083  -0.56686  -0.55516  -0.54101  -0.52218
 Alpha  occ. eigenvalues --   -0.51531  -0.49228  -0.47071  -0.43358  -0.39786
 Alpha  occ. eigenvalues --   -0.39250  -0.38252  -0.37732  -0.36383  -0.35868
 Alpha  occ. eigenvalues --   -0.34250  -0.33931  -0.33706  -0.33442  -0.30530
 Alpha  occ. eigenvalues --   -0.22190  -0.21786
 Alpha virt. eigenvalues --   -0.01671   0.01533   0.03329   0.05850   0.05956
 Alpha virt. eigenvalues --    0.06565   0.07813   0.07832   0.08826   0.08882
 Alpha virt. eigenvalues --    0.10364   0.11391   0.12133   0.13984   0.14733
 Alpha virt. eigenvalues --    0.14963   0.15699   0.15959   0.16982   0.17094
 Alpha virt. eigenvalues --    0.17619   0.19442   0.19560   0.20850   0.23087
 Alpha virt. eigenvalues --    0.23150   0.23475   0.24691   0.25276   0.25662
 Alpha virt. eigenvalues --    0.27130   0.28346   0.30218   0.32556   0.32950
 Alpha virt. eigenvalues --    0.33619   0.35597   0.35821   0.36420   0.38086
 Alpha virt. eigenvalues --    0.39073   0.39403   0.39829   0.41005   0.41050
 Alpha virt. eigenvalues --    0.41336   0.41447   0.41968   0.42169   0.43221
 Alpha virt. eigenvalues --    0.43798   0.44653   0.44673   0.45819   0.46987
 Alpha virt. eigenvalues --    0.47046   0.47692   0.47981   0.48145   0.48231
 Alpha virt. eigenvalues --    0.49656   0.50338   0.52015   0.52555   0.54682
 Alpha virt. eigenvalues --    0.55133   0.55497   0.56542   0.57733   0.57877
 Alpha virt. eigenvalues --    0.60073   0.62173   0.64347   0.64355   0.66250
 Alpha virt. eigenvalues --    0.66285   0.70672   0.71759   0.72452   0.73745
 Alpha virt. eigenvalues --    0.77968   0.79770   0.81300   0.81682   0.83856
 Alpha virt. eigenvalues --    0.84636   0.87213   0.87902   0.91795   0.92960
 Alpha virt. eigenvalues --    0.95192   0.96147   0.96842   0.97482   0.99155
 Alpha virt. eigenvalues --    1.00929   1.01154   1.02135   1.03424   1.04035
 Alpha virt. eigenvalues --    1.04549   1.04614   1.08561   1.08661   1.11851
 Alpha virt. eigenvalues --    1.13322   1.13754   1.15063   1.15631   1.16401
 Alpha virt. eigenvalues --    1.18574   1.19232   1.20109   1.21590   1.21840
 Alpha virt. eigenvalues --    1.23969   1.24700   1.25405   1.28868   1.29621
 Alpha virt. eigenvalues --    1.29703   1.30701   1.32236   1.33764   1.35545
 Alpha virt. eigenvalues --    1.37345   1.39660   1.40700   1.41267   1.42961
 Alpha virt. eigenvalues --    1.45165   1.47255   1.48325   1.50387   1.53847
 Alpha virt. eigenvalues --    1.55259   1.56481   1.57077   1.58365   1.58511
 Alpha virt. eigenvalues --    1.59667   1.62173   1.63148   1.64083   1.65471
 Alpha virt. eigenvalues --    1.67257   1.67622   1.71918   1.73146   1.73461
 Alpha virt. eigenvalues --    1.77251   1.81245   1.81431   1.83066   1.83633
 Alpha virt. eigenvalues --    1.85210   1.87034   1.89963   1.92846   1.94828
 Alpha virt. eigenvalues --    1.95619   1.98173   1.98434   1.99353   2.02082
 Alpha virt. eigenvalues --    2.02217   2.02458   2.03979   2.06280   2.09052
 Alpha virt. eigenvalues --    2.11727   2.12716   2.15824   2.16590   2.18755
 Alpha virt. eigenvalues --    2.19322   2.20238   2.24244   2.24370   2.27100
 Alpha virt. eigenvalues --    2.28302   2.31467   2.32924   2.33042   2.36378
 Alpha virt. eigenvalues --    2.37560   2.39329   2.39942   2.41218   2.43534
 Alpha virt. eigenvalues --    2.43583   2.44807   2.46063   2.46908   2.50525
 Alpha virt. eigenvalues --    2.50923   2.53509   2.53943   2.55384   2.57192
 Alpha virt. eigenvalues --    2.57358   2.58964   2.60553   2.60973   2.61950
 Alpha virt. eigenvalues --    2.65181   2.65663   2.66466   2.68050   2.68336
 Alpha virt. eigenvalues --    2.69951   2.70115   2.71383   2.72503   2.73136
 Alpha virt. eigenvalues --    2.75743   2.76186   2.77310   2.79232   2.81067
 Alpha virt. eigenvalues --    2.83109   2.83344   2.85447   2.87473   2.88433
 Alpha virt. eigenvalues --    2.89065   2.89537   2.91998   2.93219   2.95348
 Alpha virt. eigenvalues --    2.96678   2.97180   2.99951   3.01097   3.01964
 Alpha virt. eigenvalues --    3.03681   3.03892   3.05812   3.07616   3.08369
 Alpha virt. eigenvalues --    3.10227   3.11334   3.11977   3.13584   3.15011
 Alpha virt. eigenvalues --    3.16299   3.17681   3.19054   3.20854   3.21954
 Alpha virt. eigenvalues --    3.22649   3.23374   3.24759   3.25747   3.27229
 Alpha virt. eigenvalues --    3.28569   3.28764   3.29994   3.31019   3.33227
 Alpha virt. eigenvalues --    3.33528   3.34240   3.35415   3.36158   3.40152
 Alpha virt. eigenvalues --    3.40979   3.41904   3.42410   3.46297   3.46435
 Alpha virt. eigenvalues --    3.46940   3.47884   3.48924   3.49860   3.50264
 Alpha virt. eigenvalues --    3.50630   3.53253   3.55686   3.57721   3.58163
 Alpha virt. eigenvalues --    3.59828   3.63289   3.65100   3.68089   3.70322
 Alpha virt. eigenvalues --    3.71593   3.74173   3.78912   3.81315   3.81988
 Alpha virt. eigenvalues --    3.86543   3.87954   3.90628   3.93347   3.93954
 Alpha virt. eigenvalues --    3.95786   3.97259   3.98454   3.99463   4.00207
 Alpha virt. eigenvalues --    4.04244   4.05802   4.08324   4.10287   4.12980
 Alpha virt. eigenvalues --    4.14814   4.17474   4.19104   4.20619   4.21256
 Alpha virt. eigenvalues --    4.22320   4.23828   4.25729   4.28056   4.32342
 Alpha virt. eigenvalues --    4.33797   4.34122   4.36251   4.38883   4.39466
 Alpha virt. eigenvalues --    4.40481   4.43984   4.45054   4.50250   4.52393
 Alpha virt. eigenvalues --    4.54056   4.54598   4.62878   4.65181   4.69491
 Alpha virt. eigenvalues --    4.70450   4.72554   4.78808   4.80879   4.81526
 Alpha virt. eigenvalues --    4.91867   4.92926   4.94616   4.98259   4.99154
 Alpha virt. eigenvalues --    4.99602   5.03793   5.06455   5.08813   5.17705
 Alpha virt. eigenvalues --    5.21652   5.36098  22.33548  22.34154  22.51977
 Alpha virt. eigenvalues --   22.56052  22.56941  22.62092  22.63009  22.78085
 Alpha virt. eigenvalues --   22.89286  23.00297
          Condensed to atoms (all electrons):
               1          2          3          4          5          6
     1  C    5.121831   0.508290  -0.023907  -0.167327   0.347602   0.030760
     2  C    0.508290   5.267221   0.202908  -0.023920  -0.047833   0.004829
     3  C   -0.023907   0.202908   5.267167   0.508321  -0.047919  -0.115808
     4  C   -0.167327  -0.023920   0.508321   5.121893   0.347615   0.007999
     5  C    0.347602  -0.047833  -0.047919   0.347615   4.887812  -0.041723
     6  C    0.030760   0.004829  -0.115808   0.007999  -0.041723   5.381361
     7  C    0.008018  -0.115789   0.004866   0.030758  -0.041699   0.417044
     8  C   -0.004099   0.019828   0.009988   0.002639   0.008451  -0.053109
     9  C   -0.003751  -0.026187  -0.026166  -0.003735  -0.004080  -0.027858
    10  C    0.002641   0.009996   0.019841  -0.004111   0.008455   0.225020
    11  H    0.429025  -0.055693   0.014788   0.009204  -0.048488  -0.002957
    12  H   -0.047152   0.443473  -0.058916   0.008046   0.009311   0.000910
    13  H    0.008046  -0.058900   0.443453  -0.047159   0.009313  -0.006457
    14  H    0.009204   0.014783  -0.055672   0.429018  -0.048489  -0.005631
    15  H   -0.029720   0.003455   0.003469  -0.029741   0.415868  -0.009859
    16  H   -0.018752  -0.002664  -0.002658  -0.018771   0.356719   0.007977
    17  H    0.002605   0.009107  -0.013951  -0.033573  -0.002188   0.439258
    18  H   -0.033574  -0.013942   0.009109   0.002606  -0.002195  -0.054208
    19  H   -0.002611   0.003074   0.004509  -0.000753   0.001161  -0.001150
    20  H    0.002713   0.001249  -0.001727  -0.000465  -0.000292   0.008538
    21  H    0.000260   0.000303   0.000304   0.000259  -0.000127   0.008445
    22  H   -0.000041  -0.000571  -0.000602  -0.000032   0.000345   0.002334
    23  H   -0.000465  -0.001726   0.001247   0.002713  -0.000292  -0.044095
    24  H   -0.000752   0.004512   0.003085  -0.002621   0.001161  -0.058740
               7          8          9         10         11         12
     1  C    0.008018  -0.004099  -0.003751   0.002641   0.429025  -0.047152
     2  C   -0.115789   0.019828  -0.026187   0.009996  -0.055693   0.443473
     3  C    0.004866   0.009988  -0.026166   0.019841   0.014788  -0.058916
     4  C    0.030758   0.002639  -0.003735  -0.004111   0.009204   0.008046
     5  C   -0.041699   0.008451  -0.004080   0.008455  -0.048488   0.009311
     6  C    0.417044  -0.053109  -0.027858   0.225020  -0.002957   0.000910
     7  C    5.381366   0.225023  -0.027946  -0.053114  -0.005633  -0.006452
     8  C    0.225023   4.969322   0.298806  -0.046987  -0.001869   0.002612
     9  C   -0.027946   0.298806   4.995271   0.298818  -0.000062  -0.003354
    10  C   -0.053114  -0.046987   0.298818   4.969250   0.000364   0.000431
    11  H   -0.005633  -0.001869  -0.000062   0.000364   0.555567  -0.005371
    12  H   -0.006452   0.002612  -0.003354   0.000431  -0.005371   0.551897
    13  H    0.000909   0.000432  -0.003353   0.002615  -0.000140  -0.002617
    14  H   -0.002955   0.000363  -0.000061  -0.001868  -0.000205  -0.000140
    15  H   -0.009860   0.001489  -0.000131   0.001489  -0.000941  -0.000238
    16  H    0.007974  -0.000869   0.000454  -0.000870  -0.000347  -0.000513
    17  H   -0.054203   0.008201   0.006328  -0.036931  -0.000368   0.000077
    18  H    0.439214  -0.036934   0.006333   0.008207   0.001371  -0.000470
    19  H   -0.058743   0.435512  -0.054148   0.017005   0.002252   0.000471
    20  H   -0.044113   0.380463  -0.016348  -0.006703  -0.000304   0.000131
    21  H    0.008460  -0.041746   0.418486  -0.041721   0.000003   0.000038
    22  H    0.002345  -0.038818   0.410035  -0.038781  -0.000082   0.001197
    23  H    0.008534  -0.006696  -0.016353   0.380437  -0.000006  -0.000030
    24  H   -0.001155   0.017012  -0.054164   0.435500   0.000016   0.000044
              13         14         15         16         17         18
     1  C    0.008046   0.009204  -0.029720  -0.018752   0.002605  -0.033574
     2  C   -0.058900   0.014783   0.003455  -0.002664   0.009107  -0.013942
     3  C    0.443453  -0.055672   0.003469  -0.002658  -0.013951   0.009109
     4  C   -0.047159   0.429018  -0.029741  -0.018771  -0.033573   0.002606
     5  C    0.009313  -0.048489   0.415868   0.356719  -0.002188  -0.002195
     6  C   -0.006457  -0.005631  -0.009859   0.007977   0.439258  -0.054208
     7  C    0.000909  -0.002955  -0.009860   0.007974  -0.054203   0.439214
     8  C    0.000432   0.000363   0.001489  -0.000869   0.008201  -0.036934
     9  C   -0.003353  -0.000061  -0.000131   0.000454   0.006328   0.006333
    10  C    0.002615  -0.001868   0.001489  -0.000870  -0.036931   0.008207
    11  H   -0.000140  -0.000205  -0.000941  -0.000347  -0.000368   0.001371
    12  H   -0.002617  -0.000140  -0.000238  -0.000513   0.000077  -0.000470
    13  H    0.551925  -0.005371  -0.000238  -0.000514  -0.000470   0.000077
    14  H   -0.005371   0.555554  -0.000941  -0.000345   0.001368  -0.000368
    15  H   -0.000238  -0.000941   0.580255  -0.032300   0.001856   0.001857
    16  H   -0.000514  -0.000345  -0.032300   0.598764   0.000017   0.000017
    17  H   -0.000470   0.001368   0.001856   0.000017   0.574517  -0.007650
    18  H    0.000077  -0.000368   0.001857   0.000017  -0.007650   0.574591
    19  H    0.000043   0.000016  -0.000077  -0.000108  -0.000145   0.000553
    20  H   -0.000030  -0.000006  -0.000060   0.000024  -0.000389  -0.003956
    21  H    0.000038   0.000003  -0.000001  -0.000000  -0.000216  -0.000216
    22  H    0.001194  -0.000082  -0.000024  -0.000008  -0.000314  -0.000315
    23  H    0.000131  -0.000304  -0.000060   0.000024  -0.003952  -0.000390
    24  H    0.000472   0.002249  -0.000077  -0.000108   0.000552  -0.000145
              19         20         21         22         23         24
     1  C   -0.002611   0.002713   0.000260  -0.000041  -0.000465  -0.000752
     2  C    0.003074   0.001249   0.000303  -0.000571  -0.001726   0.004512
     3  C    0.004509  -0.001727   0.000304  -0.000602   0.001247   0.003085
     4  C   -0.000753  -0.000465   0.000259  -0.000032   0.002713  -0.002621
     5  C    0.001161  -0.000292  -0.000127   0.000345  -0.000292   0.001161
     6  C   -0.001150   0.008538   0.008445   0.002334  -0.044095  -0.058740
     7  C   -0.058743  -0.044113   0.008460   0.002345   0.008534  -0.001155
     8  C    0.435512   0.380463  -0.041746  -0.038818  -0.006696   0.017012
     9  C   -0.054148  -0.016348   0.418486   0.410035  -0.016353  -0.054164
    10  C    0.017005  -0.006703  -0.041721  -0.038781   0.380437   0.435500
    11  H    0.002252  -0.000304   0.000003  -0.000082  -0.000006   0.000016
    12  H    0.000471   0.000131   0.000038   0.001197  -0.000030   0.000044
    13  H    0.000043  -0.000030   0.000038   0.001194   0.000131   0.000472
    14  H    0.000016  -0.000006   0.000003  -0.000082  -0.000304   0.002249
    15  H   -0.000077  -0.000060  -0.000001  -0.000024  -0.000060  -0.000077
    16  H   -0.000108   0.000024  -0.000000  -0.000008   0.000024  -0.000108
    17  H   -0.000145  -0.000389  -0.000216  -0.000314  -0.003952   0.000552
    18  H    0.000553  -0.003956  -0.000216  -0.000315  -0.000390  -0.000145
    19  H    0.621540  -0.040706   0.003360  -0.011694  -0.001145   0.000383
    20  H   -0.040706   0.640231  -0.012000   0.007213   0.003537  -0.001146
    21  H    0.003360  -0.012000   0.608514  -0.032609  -0.012002   0.003360
    22  H   -0.011694   0.007213  -0.032609   0.620632   0.007212  -0.011699
    23  H   -0.001145   0.003537  -0.012002   0.007212   0.640243  -0.040711
    24  H    0.000383  -0.001146   0.003360  -0.011699  -0.040711   0.621588
 Mulliken charges:
               1
     1  C   -0.138841
     2  C   -0.145805
     3  C   -0.145730
     4  C   -0.138865
     5  C   -0.108489
     6  C   -0.112880
     7  C   -0.112851
     8  C   -0.149013
     9  C   -0.166834
    10  C   -0.148983
    11  H    0.109876
    12  H    0.106616
    13  H    0.106602
    14  H    0.109882
    15  H    0.104529
    16  H    0.106855
    17  H    0.110460
    18  H    0.110428
    19  H    0.081400
    20  H    0.084147
    21  H    0.088805
    22  H    0.083163
    23  H    0.084147
    24  H    0.081382
 Sum of Mulliken charges =  -0.00000
 Mulliken charges with hydrogens summed into heavy atoms:
               1
     1  C   -0.028966
     2  C   -0.039189
     3  C   -0.039128
     4  C   -0.028983
     5  C    0.102894
     6  C   -0.002420
     7  C   -0.002423
     8  C    0.016534
     9  C    0.005134
    10  C    0.016545
 APT charges:
               1
     1  C   -0.590095
     2  C   -0.384409
     3  C   -0.384560
     4  C   -0.589981
     5  C   -0.713162
     6  C   -0.334953
     7  C   -0.335056
     8  C   -0.788951
     9  C   -0.786789
    10  C   -0.789086
    11  H    0.455115
    12  H    0.446611
    13  H    0.446652
    14  H    0.455181
    15  H    0.327205
    16  H    0.523494
    17  H    0.400312
    18  H    0.400241
    19  H    0.275051
    20  H    0.475099
    21  H    0.553864
    22  H    0.188071
    23  H    0.475140
    24  H    0.275006
 Sum of APT charges =  -0.00000
 APT charges with hydrogens summed into heavy atoms:
               1
     1  C   -0.134979
     2  C    0.062202
     3  C    0.062092
     4  C   -0.134800
     5  C    0.137538
     6  C    0.065358
     7  C    0.065185
     8  C   -0.038801
     9  C   -0.044855
    10  C   -0.038941
 Electronic spatial extent (au):  <R**2>=           1251.2874
 Charge=             -0.0000 electrons
 Dipole moment (field-independent basis, Debye):
    X=             -0.1520    Y=             -0.0002    Z=             -0.4074  Tot=              0.4349
 Quadrupole moment (field-independent basis, Debye-Ang):
   XX=            -64.2341   YY=            -60.7562   ZZ=            -61.5831
   XY=             -0.0003   XZ=              2.7793   YZ=             -0.0007
 Traceless Quadrupole moment (field-independent basis, Debye-Ang):
   XX=             -2.0429   YY=              1.4349   ZZ=              0.6080
   XY=             -0.0003   XZ=              2.7793   YZ=             -0.0007
 Octapole moment (field-independent basis, Debye-Ang**2):
  XXX=              5.7500  YYY=             -0.0018  ZZZ=              2.1253  XYY=             -2.5592
  XXY=             -0.0018  XXZ=             -7.4263  XZZ=             -1.2645  YZZ=              0.0021
  YYZ=             -1.7043  XYZ=             -0.0004
 Hexadecapole moment (field-independent basis, Debye-Ang**3):
 XXXX=           -947.4419 YYYY=           -432.5186 ZZZZ=           -373.1042 XXXY=              0.0035
 XXXZ=             15.7849 YYYX=             -0.0035 YYYZ=             -0.0001 ZZZX=              9.2408
 ZZZY=             -0.0063 XXYY=           -239.5440 XXZZ=           -234.1970 YYZZ=           -129.7615
 XXYZ=             -0.0038 YYXZ=              3.6500 ZZXY=             -0.0058
 N-N= 5.458309837325D+02 E-N=-1.994620578653D+03  KE= 3.878026027365D+02
  Exact polarizability:       0.000       0.000       0.000       0.000       0.000       0.000
 Approx polarizability:     171.567      -0.006     193.263     -10.422       0.000     185.015
   1 Symmetry operations used in ECPInt.
 ECPInt:  NShTT=   13861 NPrTT=   40732 LenC2=   13680 LenP2D=   32408.
 LDataN:  DoStor=T MaxTD1= 8 Len=  415
 Calling FoFJK, ICntrl=    100127 FMM=F ISym2X=0 I1Cent= 0 IOpClX= 0 NMat=1 NMatS=1 NMatT=0.
 ***** Axes restored to original set *****
 -------------------------------------------------------------------
 Center     Atomic                   Forces (Hartrees/Bohr)
 Number     Number              X              Y              Z
 -------------------------------------------------------------------
      1        6          -0.013165042    0.006416426   -0.000001579
      2        6          -0.003310776   -0.000526164   -0.006735837
      3        6          -0.003301277    0.000490584   -0.006795375
      4        6          -0.013172796   -0.006399503    0.000044131
      5        6           0.000184978   -0.000026597    0.000535001
      6        6           0.010059378   -0.005268941    0.006739567
      7        6           0.010012522    0.005339943    0.006836408
      8        6           0.003197487    0.003780503    0.001530500
      9        6           0.003081624    0.000040606   -0.002485256
     10        6           0.003216270   -0.003865953    0.001541545
     11        1           0.000006906    0.003614962   -0.000000777
     12        1           0.000599211    0.002791183   -0.002255024
     13        1           0.000594716   -0.002769810   -0.002237179
     14        1           0.000004803   -0.003608392   -0.000006352
     15        1          -0.000100339    0.000006224    0.001358078
     16        1          -0.002223331    0.000007597   -0.000128575
     17        1          -0.000831175    0.000044981    0.003941393
     18        1          -0.000813401   -0.000081794    0.003905553
     19        1           0.001034118    0.002085603   -0.000403388
     20        1           0.001091729    0.001811280   -0.000897674
     21        1           0.000234656   -0.000015732   -0.002082955
     22        1           0.001491852   -0.000010119   -0.001108490
     23        1           0.001065179   -0.001795053   -0.000907457
     24        1           0.001042708   -0.002061835   -0.000386257
 -------------------------------------------------------------------
 Cartesian Forces:  Max     0.013172796 RMS     0.003880120
 FormGI is forming the generalized inverse of G from B-inverse, IUseBI=4.

 GradGradGradGradGradGradGradGradGradGradGradGradGradGradGradGradGradGrad
 Berny optimization.
 Internal  Forces:  Max     0.018166816 RMS     0.002583907
 Search for a saddle point.
 Step number   1 out of a maximum of  144
 All quantities printed in internal units (Hartrees-Bohrs-Radians)
 Swapping is turned off.
 Second derivative matrix not updated -- analytic derivatives used.
 ITU=  0
     Eigenvalues ---   -0.00589   0.00256   0.00305   0.00433   0.00668
     Eigenvalues ---    0.00758   0.00914   0.01009   0.01093   0.01304
     Eigenvalues ---    0.01396   0.01539   0.01898   0.02350   0.02748
     Eigenvalues ---    0.03023   0.03289   0.03396   0.03521   0.03828
     Eigenvalues ---    0.03838   0.03972   0.04169   0.04248   0.04419
     Eigenvalues ---    0.04835   0.05085   0.05255   0.05685   0.06028
     Eigenvalues ---    0.06239   0.06385   0.07011   0.07374   0.08890
     Eigenvalues ---    0.09270   0.10025   0.10763   0.10871   0.12245
     Eigenvalues ---    0.14057   0.16327   0.21500   0.23278   0.23921
     Eigenvalues ---    0.25457   0.28644   0.29029   0.30410   0.30735
     Eigenvalues ---    0.31349   0.32084   0.32270   0.32622   0.33473
     Eigenvalues ---    0.33494   0.33759   0.33909   0.34388   0.36986
     Eigenvalues ---    0.37071   0.37228   0.37283   0.40912   0.44240
     Eigenvalues ---    0.49434
 Eigenvectors required to have negative eigenvalues:
                          R3        R10       R12       D67       D65
   1                   -0.49126  -0.43219  -0.17935  -0.17722   0.16881
                          D7        D75       D37       D88       D9
   1                    0.14558   0.14404  -0.14249  -0.14039   0.13533
 RFO step:  Lambda0=1.051340838D-02 Lambda=-9.45753908D-03.
 Linear search not attempted -- option 19 set.
 Maximum step size (   0.300) exceeded in Quadratic search.
    -- Step size scaled by   0.663
 Iteration  1 RMS(Cart)=  0.03385630 RMS(Int)=  0.00149756
 Iteration  2 RMS(Cart)=  0.00129028 RMS(Int)=  0.00081785
 Iteration  3 RMS(Cart)=  0.00000238 RMS(Int)=  0.00081785
 Iteration  4 RMS(Cart)=  0.00000000 RMS(Int)=  0.00081785
 Variable       Old X    -DE/DX   Delta X   Delta X   Delta X     New X
                                 (Linear)    (Quad)   (Total)
    R1        2.56785   0.00852   0.00000   0.03328   0.03363   2.60148
    R2        2.82717   0.00485   0.00000   0.01157   0.01098   2.83815
    R3        4.44560   0.01817   0.00000  -0.12456  -0.12417   4.32143
    R4        2.03336   0.00345   0.00000   0.00656   0.00656   2.03991
    R5        2.68568   0.00546   0.00000  -0.01696  -0.01613   2.66954
    R6        2.03303   0.00350   0.00000   0.00643   0.00643   2.03946
    R7        2.56778   0.00900   0.00000   0.03413   0.03431   2.60209
    R8        2.03311   0.00347   0.00000   0.00632   0.00632   2.03943
    R9        2.82725   0.00318   0.00000   0.01073   0.01004   2.83728
   R10        4.44578   0.01234   0.00000  -0.16774  -0.16910   4.27668
   R11        2.03337   0.00220   0.00000   0.00538   0.00548   2.03885
   R12        4.61069   0.00507   0.00000  -0.03678  -0.03689   4.57380
   R13        2.05170   0.00108   0.00000   0.00259   0.00260   2.05430
   R14        2.07409   0.00223   0.00000   0.00330   0.00330   2.07739
   R15        2.54886   0.00931   0.00000   0.03894   0.03978   2.58864
   R16        2.84124   0.00765   0.00000   0.01524   0.01566   2.85691
   R17        2.03232   0.00135   0.00000   0.00408   0.00471   2.03702
   R18        2.84117   0.00749   0.00000   0.01443   0.01472   2.85588
   R19        2.03249   0.00308   0.00000   0.00682   0.00682   2.03930
   R20        2.90141   0.00671   0.00000   0.01038   0.00959   2.91100
   R21        2.05941   0.00142   0.00000   0.00343   0.00343   2.06283
   R22        2.07006   0.00104   0.00000   0.00156   0.00156   2.07162
   R23        2.90131   0.00660   0.00000   0.01042   0.00963   2.91094
   R24        2.05835   0.00074   0.00000   0.00161   0.00161   2.05996
   R25        2.05726   0.00014   0.00000   0.00136   0.00136   2.05861
   R26        2.07016   0.00101   0.00000   0.00133   0.00133   2.07149
   R27        2.05950   0.00139   0.00000   0.00336   0.00336   2.06287
   R28        4.72210   0.00294   0.00000  -0.01869  -0.01827   4.70382
   R29        4.54326   0.00088   0.00000   0.02794   0.02830   4.57156
    A1        1.89095  -0.00086   0.00000  -0.01759  -0.01977   1.87117
    A2        1.68353   0.00333   0.00000   0.06293   0.06316   1.74669
    A3        2.19950  -0.00042   0.00000  -0.01695  -0.01911   2.18039
    A4        1.51954  -0.00100   0.00000   0.01232   0.01266   1.53219
    A5        2.14694   0.00085   0.00000   0.00266   0.00137   2.14832
    A6        1.76783  -0.00091   0.00000   0.02262   0.02277   1.79060
    A7        1.90133  -0.00059   0.00000  -0.00067  -0.00131   1.90002
    A8        2.20357  -0.00069   0.00000  -0.00930  -0.00916   2.19440
    A9        2.17334   0.00123   0.00000   0.00719   0.00724   2.18058
   A10        1.90140  -0.00017   0.00000  -0.00100  -0.00182   1.89958
   A11        2.17339   0.00101   0.00000   0.00710   0.00719   2.18058
   A12        2.20345  -0.00085   0.00000  -0.00910  -0.00887   2.19458
   A13        1.89092  -0.00082   0.00000  -0.01782  -0.01986   1.87105
   A14        1.68339   0.00316   0.00000   0.06754   0.06813   1.75151
   A15        2.19960  -0.00042   0.00000  -0.01520  -0.01694   2.18266
   A16        2.11910   0.00292   0.00000   0.08035   0.08033   2.19944
   A17        1.51959  -0.00008   0.00000   0.02176   0.02233   1.54192
   A18        2.14691   0.00099   0.00000   0.00259   0.00132   2.14823
   A19        1.49447  -0.00043   0.00000   0.01004   0.01000   1.50447
   A20        1.76781  -0.00203   0.00000   0.00668   0.00623   1.77404
   A21        1.75696   0.00174   0.00000  -0.00904  -0.00989   1.74707
   A22        2.02729   0.00028   0.00000   0.00251   0.00263   2.02993
   A23        1.88579  -0.00078   0.00000  -0.00259  -0.00238   1.88340
   A24        2.02718  -0.00132   0.00000  -0.00077  -0.00029   2.02689
   A25        1.88563  -0.00005   0.00000  -0.00163  -0.00171   1.88392
   A26        1.87280   0.00014   0.00000   0.01012   0.01012   1.88291
   A27        1.77503   0.00079   0.00000   0.00921   0.00917   1.78420
   A28        1.83076   0.00314   0.00000   0.04469   0.04461   1.87537
   A29        1.94145  -0.00075   0.00000  -0.00726  -0.00807   1.93337
   A30        2.19712  -0.00113   0.00000  -0.03047  -0.03281   2.16431
   A31        2.09498   0.00181   0.00000  -0.00101  -0.00559   2.08939
   A32        1.77513  -0.00221   0.00000  -0.00434  -0.00492   1.77021
   A33        1.83067   0.00380   0.00000   0.04643   0.04655   1.87721
   A34        1.42443  -0.00045   0.00000   0.07840   0.07935   1.50378
   A35        1.94166  -0.00022   0.00000  -0.00577  -0.00613   1.93553
   A36        2.19706  -0.00066   0.00000  -0.03116  -0.03382   2.16324
   A37        2.09478   0.00058   0.00000  -0.00499  -0.01080   2.08398
   A38        1.81300  -0.00008   0.00000   0.00038   0.00092   1.81392
   A39        1.97857   0.00038   0.00000   0.00650   0.00636   1.98493
   A40        1.89786   0.00081   0.00000   0.00357   0.00339   1.90125
   A41        1.96254   0.00037   0.00000  -0.00025  -0.00052   1.96202
   A42        1.93613  -0.00038   0.00000  -0.00169  -0.00177   1.93437
   A43        1.87559  -0.00103   0.00000  -0.00801  -0.00793   1.86766
   A44        1.83492   0.00093   0.00000  -0.00074  -0.00132   1.83360
   A45        1.95608  -0.00011   0.00000   0.00278   0.00289   1.95897
   A46        1.91565   0.00013   0.00000   0.00170   0.00192   1.91757
   A47        1.95634   0.00001   0.00000   0.00313   0.00334   1.95967
   A48        1.91582  -0.00002   0.00000   0.00084   0.00097   1.91680
   A49        1.88485  -0.00088   0.00000  -0.00739  -0.00749   1.87736
   A50        1.81314   0.00015   0.00000   0.00050   0.00119   1.81433
   A51        1.89793   0.00087   0.00000   0.00422   0.00409   1.90202
   A52        1.97853   0.00016   0.00000   0.00600   0.00572   1.98425
   A53        1.93614  -0.00080   0.00000  -0.00083  -0.00105   1.93509
   A54        1.96250   0.00064   0.00000  -0.00138  -0.00158   1.96091
   A55        1.87547  -0.00099   0.00000  -0.00794  -0.00784   1.86764
   A56        1.70060   0.00189   0.00000  -0.01578  -0.01614   1.68446
   A57        0.94370  -0.00017   0.00000   0.00382   0.00369   0.94739
   A58        1.62345   0.00322   0.00000  -0.06852  -0.06875   1.55470
   A59        1.59011   0.00291   0.00000  -0.01781  -0.01765   1.57246
   A60        1.15766   0.00038   0.00000   0.00429   0.00373   1.16139
    D1       -0.24074  -0.00095   0.00000  -0.06347  -0.06298  -0.30373
    D2        3.00425  -0.00060   0.00000  -0.03506  -0.03429   2.96996
    D3        1.31326  -0.00101   0.00000  -0.03156  -0.03218   1.28108
    D4       -1.72493  -0.00066   0.00000  -0.00316  -0.00349  -1.72841
    D5       -3.06715   0.00034   0.00000   0.04221   0.04106  -3.02609
    D6        0.17784   0.00070   0.00000   0.07061   0.06976   0.24760
    D7        0.36107   0.00180   0.00000   0.09770   0.09738   0.45845
    D8        2.56554   0.00160   0.00000   0.09146   0.09120   2.65674
    D9       -1.61338   0.00138   0.00000   0.10432   0.10432  -1.50906
   D10       -1.31156  -0.00139   0.00000   0.02704   0.02700  -1.28456
   D11        0.89291  -0.00159   0.00000   0.02080   0.02082   0.91373
   D12        2.99718  -0.00181   0.00000   0.03366   0.03394   3.03112
   D13       -3.08416   0.00029   0.00000  -0.00825  -0.00870  -3.09286
   D14       -0.87968   0.00009   0.00000  -0.01449  -0.01488  -0.89456
   D15        1.22459  -0.00014   0.00000  -0.00163  -0.00176   1.22282
   D16       -1.20549   0.00056   0.00000   0.01862   0.01932  -1.18617
   D17        0.81877   0.00081   0.00000   0.02730   0.02774   0.84650
   D18        2.89492   0.00123   0.00000   0.03858   0.04006   2.93498
   D19        0.68190  -0.00046   0.00000   0.00112   0.00101   0.68291
   D20        2.70615  -0.00022   0.00000   0.00980   0.00943   2.71558
   D21       -1.50088   0.00021   0.00000   0.02108   0.02175  -1.47913
   D22        2.83032   0.00014   0.00000   0.00792   0.00718   2.83750
   D23       -1.42861   0.00038   0.00000   0.01660   0.01560  -1.41301
   D24        0.64754   0.00081   0.00000   0.02788   0.02792   0.67546
   D25        0.00002   0.00027   0.00000  -0.00216  -0.00205  -0.00202
   D26       -3.04045   0.00047   0.00000   0.02902   0.02972  -3.01072
   D27        3.04042  -0.00021   0.00000  -0.03114  -0.03165   3.00877
   D28       -0.00005  -0.00001   0.00000   0.00004   0.00012   0.00007
   D29        0.24070   0.00067   0.00000   0.06693   0.06632   0.30701
   D30       -1.31332  -0.00020   0.00000   0.02353   0.02369  -1.28963
   D31        3.06720   0.00002   0.00000  -0.03406  -0.03302   3.03418
   D32       -1.43866   0.00057   0.00000   0.03394   0.03510  -1.40356
   D33       -3.00421   0.00060   0.00000   0.03626   0.03540  -2.96880
   D34        1.72496  -0.00027   0.00000  -0.00714  -0.00723   1.71774
   D35       -0.17770  -0.00005   0.00000  -0.06472  -0.06393  -0.24164
   D36        1.59962   0.00050   0.00000   0.00328   0.00419   1.60381
   D37       -0.36105  -0.00158   0.00000  -0.09898  -0.09861  -0.45966
   D38       -2.56560  -0.00244   0.00000  -0.09493  -0.09441  -2.66000
   D39        1.61352  -0.00170   0.00000  -0.10633  -0.10606   1.50745
   D40        1.31146   0.00174   0.00000  -0.02036  -0.02005   1.29140
   D41       -0.89309   0.00088   0.00000  -0.01631  -0.01585  -0.90895
   D42       -2.99716   0.00162   0.00000  -0.02771  -0.02751  -3.02467
   D43        3.08405  -0.00066   0.00000   0.00204   0.00221   3.08626
   D44        0.87951  -0.00152   0.00000   0.00609   0.00641   0.88591
   D45       -1.22457  -0.00078   0.00000  -0.00531  -0.00525  -1.22981
   D46        1.76292   0.00128   0.00000  -0.01243  -0.01280   1.75012
   D47       -0.44162   0.00041   0.00000  -0.00839  -0.00860  -0.45023
   D48       -2.54570   0.00116   0.00000  -0.01978  -0.02026  -2.56595
   D49        1.20594  -0.00008   0.00000  -0.01519  -0.01531   1.19062
   D50       -0.81808  -0.00070   0.00000  -0.02698  -0.02724  -0.84531
   D51       -0.68143   0.00081   0.00000   0.00166   0.00126  -0.68016
   D52       -2.70544   0.00019   0.00000  -0.01013  -0.01066  -2.71610
   D53       -2.82982  -0.00005   0.00000  -0.00591  -0.00545  -2.83527
   D54        1.42935  -0.00067   0.00000  -0.01769  -0.01738   1.41197
   D55        2.11544  -0.00081   0.00000  -0.00223  -0.00287   2.11257
   D56        0.21564   0.00005   0.00000   0.00229   0.00232   0.21796
   D57       -1.60970  -0.00143   0.00000   0.01219   0.01296  -1.59674
   D58        0.45133   0.00012   0.00000   0.00113   0.00121   0.45254
   D59        2.56227  -0.00071   0.00000   0.00620   0.00653   2.56880
   D60       -0.00021  -0.00037   0.00000  -0.00124  -0.00110  -0.00132
   D61       -1.94157  -0.00350   0.00000  -0.04968  -0.04925  -1.99082
   D62        1.53665  -0.00264   0.00000   0.08777   0.08653   1.62318
   D63        1.94112   0.00331   0.00000   0.05139   0.05124   1.99236
   D64       -0.00023   0.00018   0.00000   0.00296   0.00310   0.00286
   D65       -2.80520   0.00104   0.00000   0.14040   0.13887  -2.66633
   D66       -1.53692   0.00341   0.00000  -0.07497  -0.07373  -1.61065
   D67        2.80491   0.00028   0.00000  -0.12341  -0.12188   2.68303
   D68       -0.00006   0.00114   0.00000   0.01404   0.01390   0.01384
   D69        1.67561   0.00216   0.00000   0.01004   0.00983   1.68544
   D70       -2.54464   0.00172   0.00000   0.01130   0.01114  -2.53349
   D71       -0.45986   0.00118   0.00000   0.00799   0.00772  -0.45215
   D72       -0.22992  -0.00003   0.00000  -0.02006  -0.02016  -0.25008
   D73        1.83301  -0.00046   0.00000  -0.01880  -0.01885   1.81417
   D74       -2.36540  -0.00101   0.00000  -0.02210  -0.02227  -2.38767
   D75       -3.05742   0.00049   0.00000   0.10428   0.10466  -2.95276
   D76       -0.99448   0.00005   0.00000   0.10554   0.10597  -0.88851
   D77        1.09029  -0.00049   0.00000   0.10224   0.10255   1.19284
   D78        1.97539  -0.00045   0.00000   0.06443   0.06282   2.03820
   D79        0.81731  -0.00096   0.00000   0.06087   0.05960   0.87690
   D80       -1.52960  -0.00085   0.00000  -0.07382  -0.07365  -1.60324
   D81       -2.68768  -0.00136   0.00000  -0.07737  -0.07687  -2.76454
   D82       -1.67542   0.00045   0.00000  -0.00059  -0.00015  -1.67556
   D83        0.46004   0.00107   0.00000   0.00304   0.00347   0.46350
   D84        2.54494   0.00056   0.00000  -0.00049  -0.00016   2.54478
   D85        0.23027  -0.00027   0.00000   0.01543   0.01528   0.24556
   D86        2.36573   0.00034   0.00000   0.01905   0.01890   2.38462
   D87       -1.83256  -0.00016   0.00000   0.01553   0.01527  -1.81728
   D88        3.05763  -0.00134   0.00000  -0.11861  -0.11862   2.93900
   D89       -1.09011  -0.00072   0.00000  -0.11499  -0.11501  -1.20512
   D90        0.99480  -0.00123   0.00000  -0.11851  -0.11864   0.87616
   D91       -0.35733  -0.00003   0.00000  -0.02821  -0.02820  -0.38553
   D92       -2.48680  -0.00057   0.00000  -0.03315  -0.03308  -2.51989
   D93        1.70212   0.00053   0.00000  -0.02679  -0.02683   1.67529
   D94       -2.50335  -0.00064   0.00000  -0.03625  -0.03627  -2.53962
   D95        1.65036  -0.00119   0.00000  -0.04118  -0.04116   1.60920
   D96       -0.44391  -0.00009   0.00000  -0.03483  -0.03490  -0.47881
   D97        1.67890   0.00069   0.00000  -0.02462  -0.02456   1.65434
   D98       -0.45058   0.00015   0.00000  -0.02956  -0.02944  -0.48002
   D99       -2.54484   0.00125   0.00000  -0.02320  -0.02318  -2.56802
   D100       0.35723   0.00017   0.00000   0.02986   0.02999   0.38722
   D101      -1.67915  -0.00056   0.00000   0.02504   0.02504  -1.65411
   D102       2.50327   0.00082   0.00000   0.03673   0.03686   2.54013
   D103       2.48654   0.00064   0.00000   0.03456   0.03459   2.52113
   D104       0.45016  -0.00009   0.00000   0.02974   0.02964   0.47979
   D105      -1.65060   0.00129   0.00000   0.04144   0.04145  -1.60915
   D106      -1.70210  -0.00048   0.00000   0.02786   0.02798  -1.67412
   D107       2.54470  -0.00121   0.00000   0.02303   0.02303   2.56773
   D108       0.44394   0.00017   0.00000   0.03473   0.03484   0.47879
   D109      -0.30101  -0.00032   0.00000  -0.00363  -0.00361  -0.30462
   D110       0.87494   0.00213   0.00000  -0.07414  -0.07474   0.80020
   D111      -0.74488  -0.00011   0.00000  -0.00711  -0.00744  -0.75233
         Item               Value     Threshold  Converged?
 Maximum Force            0.018167     0.000450     NO 
 RMS     Force            0.002584     0.000300     NO 
 Maximum Displacement     0.213435     0.001800     NO 
 RMS     Displacement     0.034067     0.001200     NO 
 Predicted change in Energy= 1.593145D-03
 GradGradGradGradGradGradGradGradGradGradGradGradGradGradGradGradGradGrad

                          Input orientation:                          
 ---------------------------------------------------------------------
 Center     Atomic      Atomic             Coordinates (Angstroms)
 Number     Number       Type             X           Y           Z
 ---------------------------------------------------------------------
      1          6           0       -1.397945    1.153045    0.085638
      2          6           0       -1.199481    0.704964   -1.200824
      3          6           0       -1.192755   -0.707675   -1.196494
      4          6           0       -1.384451   -1.149251    0.093583
      5          6           0       -1.946713    0.001061    0.877752
      6          6           0        0.641511   -0.683547    0.988190
      7          6           0        0.648939    0.686277    0.992204
      8          6           0        1.699157    1.222429    0.046947
      9          6           0        2.089505    0.000181   -0.805508
     10          6           0        1.689842   -1.222686    0.041669
     11          1           0       -1.548999    2.184941    0.364282
     12          1           0       -0.956145    1.321590   -2.052476
     13          1           0       -0.943476   -1.327153   -2.044332
     14          1           0       -1.518233   -2.180176    0.382290
     15          1           0       -1.732840    0.003966    1.943592
     16          1           0       -3.038857   -0.005489    0.752623
     17          1           0        0.309132   -1.287059    1.817206
     18          1           0        0.334042    1.288124    1.830770
     19          1           0        1.355666    2.061418   -0.561092
     20          1           0        2.555051    1.579329    0.631615
     21          1           0        3.149089   -0.002861   -1.061536
     22          1           0        1.526022    0.003834   -1.737819
     23          1           0        2.542413   -1.589022    0.625232
     24          1           0        1.340628   -2.055941   -0.571009
 ---------------------------------------------------------------------
                    Distance matrix (angstroms):
                    1          2          3          4          5
     1  C    0.000000
     2  C    1.376644   0.000000
     3  C    2.268975   1.412662   0.000000
     4  C    2.302350   2.268880   1.376966   0.000000
     5  C    1.501885   2.318256   2.318028   1.501425   0.000000
     6  C    2.889127   3.179465   2.852710   2.263123   2.679512
     7  C    2.286803   2.868167   3.182034   2.882943   2.687011
     8  C    3.098121   3.197938   3.692506   3.890461   3.933744
     9  C    3.779622   3.386801   3.380408   3.768014   4.373147
    10  C    3.896212   3.688877   3.179253   3.075609   3.926974
    11  H    1.079476   2.182212   3.306079   3.349208   2.278412
    12  H    2.189778   1.079236   2.215086   3.300617   3.363221
    13  H    3.300711   2.215072   1.079222   2.190156   3.362916
    14  H    3.348557   3.306341   2.183290   1.078914   2.277470
    15  H    2.210098   3.265459   3.264700   2.207673   1.087090
    16  H    2.116521   2.775608   2.774926   2.116503   1.099309
    17  H    3.444786   3.918236   3.416685   2.420349   2.762365
    18  H    2.462420   3.447076   3.934292   3.451353   2.786865
    19  H    2.970821   2.962770   3.816551   4.271445   4.149826
    20  H    4.013226   4.268356   4.755883   4.822272   4.776755
    21  H    4.829870   4.408002   4.400748   4.816793   5.452343
    22  H    3.632529   2.865015   2.861996   3.626912   4.347540
    23  H    4.830789   4.753802   4.248169   3.987018   4.769107
    24  H    4.269492   3.804132   2.937189   2.947851   4.139658
                    6          7          8          9         10
     6  C    0.000000
     7  C    1.369851   0.000000
     8  C    2.374300   1.511267   0.000000
     9  C    2.404480   2.403691   1.540436   0.000000
[...]
 01219843,0.00079258,0.00101961,-0.28116677,0.00007824,-0.03222844,-0.0
 0228648,-0.00245598,0.00061963,-0.00229036,0.00245581,0.00061784,-0.00
 044105,0.00006948,-0.00057127,0.00002186,-0.00000005,-0.00017400,-0.00
 044091,-0.00006926,-0.00057096,0.00027438,-0.00045242,0.00029372,0.000
 15900,-0.00004681,0.00018298,0.00015855,0.00004682,0.00018278,0.000273
 39,0.00045248,0.00029422,-0.00614733,0.00000169,-0.00179477,0.31327792
 ,-0.02571097,-0.00184680,0.00130138,-0.00049682,-0.00147844,0.00030488
 ,0.00049574,-0.00148425,-0.00030071,0.02572753,-0.00186729,-0.00130528
 ,0.00008352,-0.03411604,0.00000832,0.00178149,-0.00126463,-0.00129264,
 -0.00178357,-0.00126449,0.00129424,-0.00080371,-0.00011062,-0.00043939
 ,-0.00000002,-0.00014789,0.00000019,0.00080371,-0.00011144,0.00043900,
 0.00091097,-0.00003640,-0.00037046,0.00080283,-0.00006818,0.00016861,-
 0.00080395,-0.00006796,-0.00016885,-0.00091139,-0.00003665,0.00036964,
 -0.00000594,0.00013059,-0.00000016,-0.00008965,0.04354044,0.01094158,-
 0.00090726,-0.00015823,0.00185424,-0.00169760,-0.00077938,0.00185489,0
 .00169609,-0.00078092,0.01092992,0.00090203,-0.00015642,-0.02847335,0.
 00000447,-0.04890238,0.00078763,0.00180893,0.00022927,0.00079006,-0.00
 180828,0.00022922,0.00008263,0.00037926,-0.00009837,-0.00018712,0.0000
 0004,0.00010256,0.00008219,-0.00037965,-0.00009882,-0.00038576,-0.0000
 4673,0.00042868,-0.00081660,0.00006121,-0.00020890,-0.00081671,-0.0000
 6078,-0.00020898,-0.00038508,0.00004715,0.00042818,-0.03001967,0.00000
 974,-0.00332315,0.03339140,-0.00000923,0.05242095,-0.00472795,0.001000
 36,-0.00627809,-0.00138789,0.00593719,0.00223392,-0.00089537,-0.004433
 19,0.00442694,-0.01077994,0.00269776,-0.01489447,0.00206098,-0.0003997
 5,-0.00083169,-0.04632910,-0.02248809,0.06787015,0.00576660,-0.0069178
 0,0.00110319,0.00250024,-0.00016072,0.00336244,-0.00277507,0.00117340,
 0.00263276,-0.00295834,-0.01196162,0.01413010,0.00019482,0.00000155,0.
 00012352,0.00034704,0.00005414,0.00019384,0.00007866,-0.00018603,0.000
 02095,0.00088559,-0.00029806,0.00003881,-0.00045033,0.00028394,0.00036
 959,0.00052715,-0.00028920,0.00005938,0.06030094,-0.00121955,-0.001089
 27,-0.00089476,-0.00030871,0.00109820,-0.00023595,-0.00000701,-0.00076
 514,0.00101512,-0.00247296,0.00116134,-0.00337018,0.00087365,0.0000116
 8,0.00075129,-0.02945616,-0.12672447,0.12194721,-0.00891624,-0.0117631
 0,0.02544365,0.00150234,-0.00425218,0.00107467,0.00220016,-0.00183022,
 -0.00148447,0.00237619,0.00822993,-0.01106341,0.00035078,-0.00002294,0
 .00013218,0.00013392,-0.00001486,0.00002873,-0.00002884,0.00000024,-0.
 00002125,0.00005451,0.00016621,-0.00018907,0.00050475,-0.00019016,-0.0
 0021624,0.00014924,-0.00003812,-0.00017856,0.03705460,0.13414731,-0.00
 198312,-0.00044456,-0.00197114,-0.00079370,0.00206338,0.00074724,-0.00
 013014,-0.00185083,0.00225506,-0.00548603,0.00116401,-0.00792978,0.001
 93333,0.00019195,-0.00024003,0.07581507,0.13237789,-0.23464994,0.00092
 608,-0.00796772,0.00484439,0.00168830,-0.00143679,0.00166822,0.0022512
 0,-0.00132509,-0.00009948,-0.00043995,0.00948796,-0.00934240,0.0001211
 4,-0.00006449,0.00011621,0.00007797,-0.00004077,0.00012305,0.00006146,
 -0.00004308,0.00004877,0.00003529,-0.00067650,0.00000418,0.00021385,0.
 00014836,0.00086162,0.00026193,-0.00019746,0.00038915,-0.07345378,-0.1
 3270825,0.24316611,-0.01078975,-0.00270813,-0.01490924,-0.00089567,0.0
 0443558,0.00442303,-0.00138945,-0.00593255,0.00223813,-0.00472192,-0.0
 0100386,-0.00627399,0.00205992,0.00039817,-0.00083323,0.00575543,0.006
 91811,0.00109944,-0.04634362,0.02253523,0.06787639,-0.00296085,0.01197
 174,0.01412926,-0.00277659,-0.00117238,0.00263265,0.00250165,0.0001626
 8,0.00336312,0.00088700,0.00029701,0.00003833,0.00007888,0.00018599,0.
 00002082,0.00034741,-0.00005421,0.00019384,0.00019410,-0.00000149,0.00
 012331,-0.00045038,-0.00028393,0.00036958,0.00052729,0.00028914,0.0000
 5867,-0.00259209,-0.00055289,-0.00163450,0.06033476,0.00247214,0.00116
 283,0.00336797,0.00000735,-0.00076370,-0.00101269,0.00030779,0.0010955
 1,0.00023622,0.00121670,-0.00108884,0.00089276,-0.00087286,0.00001194,
 -0.00075190,0.00892045,-0.01177282,-0.02543848,0.02950381,-0.12683908,
 -0.12199309,-0.00237677,0.00823027,0.01105640,-0.00220064,-0.00182876,
 0.00148473,-0.00150000,-0.00425238,-0.00106999,-0.00005406,0.00016742,
 0.00018998,0.00002904,0.00000026,0.00002130,-0.00013404,-0.00001475,-0
 .00002862,-0.00035051,-0.00002282,-0.00013208,-0.00050507,-0.00019010,
 0.00021719,-0.00014905,-0.00003780,0.00017894,0.00055200,0.00149393,0.
 00110493,-0.03710477,0.13426820,-0.00549694,-0.00117336,-0.00794703,-0
 .00013067,0.00185453,0.00225599,-0.00079465,-0.00206306,0.00074955,-0.
 00198172,0.00044410,-0.00197191,0.00193530,-0.00019266,-0.00023911,0.0
 0091639,0.00797600,0.00485309,0.07581646,-0.13242404,-0.23451991,-0.00
 043872,-0.00949203,-0.00934438,0.00225359,0.00132533,-0.00009963,0.001
 69018,0.00144029,0.00166931,0.00003690,0.00067696,0.00000394,0.0000615
 5,0.00004312,0.00004886,0.00007816,0.00004083,0.00012302,0.00012090,0.
 00006457,0.00011621,0.00021462,-0.00014784,0.00086234,0.00026248,0.000
 19801,0.00038921,-0.00163512,-0.00110583,-0.00011259,-0.07344217,0.132
 75228,0.24304115,0.00067166,-0.00100220,0.00075319,0.00014591,0.000574
 93,-0.00001525,0.00047361,-0.00043195,0.00009392,-0.00020209,-0.000052
 48,-0.00014793,-0.00017051,0.00029340,-0.00002132,-0.00154519,-0.00157
 145,0.00297742,0.00613576,-0.01937832,0.01210448,-0.06789069,0.0604831
 4,-0.04298397,-0.00240112,0.00568319,-0.00478074,-0.00047631,-0.000085
 45,0.00173321,-0.00003830,0.00019627,0.00008120,-0.00030467,-0.0000793
 4,-0.00021229,-0.00001301,0.00000581,-0.00001980,-0.00002464,0.0000333
 9,-0.00003276,0.00007237,0.00003720,-0.00000771,-0.00001110,-0.0001071
 5,0.00010453,-0.00060584,-0.00126657,-0.00043247,-0.00018753,0.0002869
 7,0.00027360,0.07373868,0.00130463,0.00110123,0.00059518,-0.00022086,-
 0.00068694,-0.00061863,0.00004940,0.00030566,-0.00037917,0.00042130,0.
 00012985,0.00037119,-0.00001486,-0.00015245,0.00016409,0.00001309,-0.0
 0107139,0.00096945,-0.00026240,-0.00649466,0.00460397,0.05848910,-0.19
 833645,0.10904959,0.00551152,-0.01666130,0.01248667,0.00068791,-0.0027
 8749,-0.00163366,-0.00053385,-0.00005147,-0.00007003,-0.00014261,0.000
 13708,-0.00029158,0.00003311,0.00002239,0.00003006,-0.00004761,0.00007
 241,-0.00001542,0.00001633,0.00001579,-0.00008395,-0.00005447,0.000141
 34,-0.00005928,-0.00053945,-0.00050420,-0.00009864,-0.00019313,-0.0002
 8956,0.00048117,-0.06247790,0.21815783,-0.00175665,-0.00029245,-0.0004
 4287,0.00027473,0.00112281,0.00096590,0.00055286,-0.00074953,0.0010086
 0,-0.00108268,-0.00024752,-0.00069935,0.00015960,0.00004724,-0.0001161
 9,0.00284456,0.00114708,-0.00223049,-0.00473420,0.01336948,-0.00900380
 ,-0.04205584,0.11230514,-0.12778712,0.00452005,-0.01593066,0.01141376,
 0.00114361,-0.00322897,-0.00228227,0.00055048,-0.00014870,0.00000780,-
 0.00016822,-0.00004900,0.00005679,-0.00004687,-0.00002620,-0.00000731,
 0.00012279,-0.00004773,-0.00002288,-0.00007025,0.00000872,-0.00002910,
 0.00010642,-0.00008858,-0.00002757,0.00037246,0.00060422,0.00041057,0.
 00043843,0.00013516,-0.00049316,0.04559408,-0.12147444,0.13838565,-0.0
 0031402,-0.00099316,0.00047767,0.00015798,0.00084441,0.00120150,-0.000
 09306,-0.00083511,0.00026788,-0.00105465,-0.00006644,-0.00067635,-0.00
 069386,-0.00007833,-0.00028310,-0.00075243,0.00199284,0.00179994,-0.01
 989860,-0.01011419,-0.00993761,-0.19289579,-0.05479014,-0.10997427,0.0
 0790861,0.00370554,0.00685742,-0.00022622,-0.00063218,-0.00001665,-0.0
 0007724,0.00008388,-0.00001823,0.00005025,0.00000257,-0.00002043,0.000
 02111,-0.00006834,-0.00002849,0.00002884,-0.00005491,0.00000367,0.0000
 0326,-0.00012055,0.00001818,-0.00020733,-0.00032349,0.00003934,0.00054
 011,-0.00015522,0.00035007,0.00087346,0.00064151,0.00027599,-0.0080903
 7,-0.00193621,-0.00675858,0.21246846,0.00119335,0.00037785,0.00081248,
 0.00013705,-0.00038853,-0.00026005,-0.00023642,0.00002228,-0.00008367,
 -0.00017831,0.00025333,-0.00012890,-0.00015014,-0.00012084,-0.00000805
 ,-0.00075151,0.00028838,0.00091054,-0.01026588,-0.00457101,-0.00396763
 ,-0.05415007,-0.06866382,-0.03991785,-0.01827323,-0.00681232,-0.015462
 67,-0.00033185,0.00001423,-0.00074339,-0.00029420,0.00003038,-0.000026
 90,-0.00006462,0.00003912,-0.00012538,0.00009123,0.00003022,0.00005234
 ,0.00001974,-0.00001216,0.00000637,0.00001714,-0.00001212,-0.00002385,
 -0.00004326,-0.00000625,-0.00001864,0.00035135,-0.00010936,0.00041721,
 0.00040628,0.00051570,0.00028439,0.01938405,0.00775381,0.01408596,0.06
 163795,0.07372282,0.00099926,0.00009258,0.00019890,-0.00001883,-0.0002
 7294,-0.00064805,0.00033360,0.00068847,0.00015577,0.00058327,-0.000197
 60,0.00055456,0.00014033,0.00010402,0.00010497,0.00104378,-0.00067703,
 -0.00073980,0.01536583,0.00848300,0.01122957,-0.10601742,-0.03845549,-
 0.12272376,-0.01302319,-0.00535172,-0.01295443,0.00037202,-0.00037397,
 -0.00048645,0.00012481,-0.00003189,0.00000422,0.00010246,-0.00009421,0
 .00016222,-0.00001509,0.00005199,0.00001449,-0.00004674,0.00001889,-0.
 00002907,0.00004048,0.00009677,-0.00001462,0.00019151,0.00011939,0.000
 00515,-0.00073184,0.00013823,-0.00036110,-0.00069961,-0.00073086,0.001
 10424,-0.01515908,-0.00472314,-0.01113285,0.11525396,0.04486502,0.1354
 2193,0.00006116,-0.00003478,-0.00022507,-0.00029319,-0.00007046,0.0001
 5243,-0.00029262,0.00007101,0.00015223,0.00006111,0.00003453,-0.000224
 71,0.00001676,0.,-0.00000454,0.00065927,-0.00071366,0.00032965,0.00065
 959,0.00071385,0.00032994,-0.00434506,-0.00103449,-0.00032824,-0.29649
 599,0.00002276,0.05893392,-0.00434716,0.00103500,-0.00032821,-0.000008
 41,0.00001438,0.00001363,0.00008256,-0.00004454,0.00004391,0.00008247,
 0.00004435,0.00004372,-0.00000838,-0.00001437,0.00001365,0.00005019,-0
 .00000001,0.00002564,-0.00001030,0.00000002,0.00000917,-0.00026593,0.0
 0013200,0.00007338,-0.00026593,-0.00013206,0.00007350,-0.00030837,0.00
 046778,0.00058751,0.00169728,-0.00002767,0.00023135,0.31909190,-0.0001
 3950,-0.00001281,-0.00008044,-0.00018508,0.00008839,-0.00010320,0.0001
 8475,0.00008851,0.00010326,0.00013910,-0.00001268,0.00008037,-0.000000
 05,0.00007986,-0.00000001,-0.00064470,-0.00433564,0.00208154,0.0006448
 6,-0.00433838,-0.00208218,0.02528021,0.00102852,-0.00615783,0.00002167
 ,-0.04645759,-0.00000537,-0.02527315,0.00103223,0.00615662,-0.00003310
 ,0.00002934,-0.00000225,-0.00000107,0.00000957,-0.00001430,0.00000118,
 0.00000959,0.00001434,0.00003307,0.00002927,0.00000224,0.,-0.00003214,
 0.00000006,0.00000001,0.00002768,0.,-0.00093178,0.00067111,0.00067592,
 0.00093222,0.00067129,-0.00067666,0.00049270,-0.00109119,-0.00022676,-
 0.00057024,0.00176843,0.00072953,-0.00002525,0.05007757,-0.00015927,-0
 .00005034,-0.00040384,-0.00022489,0.00003139,0.00028255,-0.00022520,-0
 .00003096,0.00028231,-0.00015906,0.00005044,-0.00040364,0.00004892,-0.
 00000003,-0.00002183,0.00125856,0.00207041,-0.00236426,0.00125815,-0.0
 0207088,-0.00236330,0.01582748,0.00043418,-0.00457599,0.05536207,-0.00
 000475,-0.06007970,0.01583353,-0.00043819,-0.00457619,-0.00000991,0.00
 001835,0.00000543,0.00005912,-0.00009761,0.00007256,0.00005919,0.00009
 742,0.00007228,-0.00000980,-0.00001835,0.00000551,0.00004879,-0.000000
 02,0.00013482,0.00013132,-0.00000004,0.00008620,0.00078030,-0.00025994
 ,-0.00045605,0.00078026,0.00025962,-0.00045585,0.00028404,-0.00048213,
 -0.00027431,-0.00001889,0.00065606,0.00088452,-0.06397716,0.00000606,0
 .06588513,-0.00010088,0.00017470,-0.00009068,-0.00094341,0.00049329,0.
 00023402,-0.00094384,-0.00049385,0.00023486,-0.00010092,-0.00017392,-0
 .00009114,-0.00000703,-0.00000003,0.00012504,0.00009304,0.00028183,-0.
 00026857,0.00009393,-0.00028124,-0.00026928,0.00483230,-0.00017036,0.0
 0713774,-0.12409099,-0.00000992,-0.11756088,0.00483574,0.00016915,0.00
 713994,0.00000279,-0.00002282,-0.00004169,-0.00014260,0.00009771,-0.00
 000023,-0.00014162,-0.00009729,-0.00000021,0.00000293,0.00002273,-0.00
 004164,-0.00004625,0.00000001,-0.00007171,0.00004133,-0.00000005,-0.00
 004513,-0.00012000,-0.00002051,-0.00000570,-0.00012001,0.00002070,-0.0
 0000619,0.00090800,-0.00050301,-0.00013227,0.00067916,0.00106707,0.001
 20694,-0.01721027,-0.00000271,-0.02721281,0.13089121,-0.00014143,-0.00
 012226,-0.00029369,-0.00009256,0.00043397,-0.00020274,0.00009279,0.000
 43422,0.00020215,0.00014168,-0.00012242,0.00029415,0.00000003,0.000041
 59,-0.00000005,0.00061948,-0.00067964,-0.00000859,-0.00062017,-0.00067
 786,0.00000968,-0.01488951,-0.00353812,-0.02389725,-0.00001013,-0.0438
 1283,-0.00001952,0.01488437,-0.00353442,0.02389202,-0.00001727,0.00000
 203,-0.00002569,0.00024480,-0.00013745,0.00015637,-0.00024455,-0.00013
 748,-0.00015610,0.00001720,0.00000202,0.00002563,-0.00000001,-0.000035
 57,0.00000004,0.,0.00000774,0.,-0.00028673,0.00009808,-0.00001166,0.00
 028682,0.00009775,0.00001205,-0.00085831,0.00147738,0.00058451,0.00206
 442,-0.00343475,-0.00401061,0.00000163,-0.00000714,0.00000303,0.000012
 76,0.05560044,-0.00021285,-0.00012597,-0.00068399,-0.00060621,-0.00007
 685,0.00061272,-0.00060474,0.00007818,0.00061115,-0.00021243,0.0001261
 7,-0.00068344,0.00003316,-0.00000003,0.00013567,-0.00010529,0.00093939
 ,-0.00007532,-0.00010540,-0.00093900,-0.00007363,-0.00949796,-0.000794
 41,-0.01374560,-0.11571808,-0.00001911,-0.23663174,-0.00950165,0.00079
 228,-0.01374939,-0.00000041,0.00004695,0.00001691,0.00011051,-0.000134
 46,0.00019265,0.00011094,0.00013418,0.00019206,-0.00000023,-0.00004692
 ,0.00001704,0.00002621,-0.00000005,0.00009943,0.00012958,-0.00000007,0
 .00005680,0.00036712,-0.00000317,-0.00008322,0.00036687,0.00000309,-0.
 00008302,0.00012289,0.00031532,0.00155280,0.00161753,-0.00182884,-0.00
 114534,0.00325516,0.00000098,0.00765363,0.12868442,0.00001932,0.255407
 67,-0.00105383,0.00006623,-0.00067517,-0.00009188,0.00083415,0.0002663
 3,0.00015655,-0.00084354,0.00120150,-0.00031169,0.00099087,0.00047648,
 -0.00069398,0.00007881,-0.00028271,-0.01989163,0.01011427,-0.00993272,
 -0.00075485,-0.00198935,0.00180211,-0.00022583,0.00063136,-0.00001639,
 0.00791156,-0.00370743,0.00685805,-0.19290601,0.05481522,-0.10995652,0
 .00002879,0.00005496,0.00000363,0.00002115,0.00006836,-0.00002859,0.00
 005038,-0.00000246,-0.00002033,-0.00007793,-0.00008374,-0.00001824,0.0
 0000333,0.00012071,0.00001809,-0.00020719,0.00032352,0.00003917,0.0008
 7386,-0.00064095,0.00027666,0.00054013,0.00015563,0.00034994,-0.000007
 89,-0.00001259,-0.00024164,-0.00011702,0.00024694,-0.00018891,0.001697
 69,0.00057016,-0.00001919,0.00067901,-0.00206401,0.00161842,0.21247767
 ,0.00017926,0.00025345,0.00012935,0.00023696,0.00002198,0.00008340,-0.
 00013739,-0.00038862,0.00026020,-0.00119309,0.00037804,-0.00081227,0.0
 0014988,-0.00012131,0.00000825,0.01027503,-0.00457821,0.00397056,0.000
 75048,0.00028802,-0.00091290,0.00033208,0.00001330,0.00074375,0.018269
 46,-0.00681084,0.01545440,0.05417622,-0.06867917,0.03993354,-0.0000198
 9,-0.00001218,-0.00000642,-0.00009138,0.00003025,-0.00005247,0.0000647
 2,0.00003943,0.00012544,0.00029388,0.00003015,0.00002695,-0.00001712,-
 0.00001214,0.00002388,0.00004323,-0.00000618,0.00001880,-0.00040673,0.
 00051604,-0.00028441,-0.00035130,-0.00011013,-0.00041720,-0.00021504,-
 0.00047422,-0.00028135,-0.00024701,-0.00021145,-0.00022416,0.00002763,
 0.00176803,-0.00065622,-0.00106742,-0.00343234,0.00182854,-0.06166795,
 0.07374067,0.00058290,0.00019818,0.00055396,0.00033340,-0.00068834,0.0
 0015683,-0.00001884,0.00027242,-0.00064818,0.00099769,-0.00009059,0.00
 019861,0.00014041,-0.00010442,0.00010501,0.01536759,-0.00848495,0.0112
 3318,0.00104268,0.00067467,-0.00074381,0.00037171,0.00037383,-0.000486
 66,-0.01302735,0.00535317,-0.01295509,-0.10599538,0.03846732,-0.122689
 99,-0.00004688,-0.00001895,-0.00002916,-0.00001517,-0.00005204,0.00001
 459,0.00010244,0.00009437,0.00016209,0.00012504,0.00003177,0.00000435,
 0.00004048,-0.00009693,-0.00001459,0.00019148,-0.00011940,0.00000529,-
 0.00069963,0.00073136,0.00110413,-0.00073192,-0.00013906,-0.00036119,-
 0.00008883,0.00024466,0.00021514,-0.00018886,0.00022410,0.00017974,0.0
 0023114,-0.00072970,0.00088491,0.00120734,0.00401085,-0.00114726,0.115
 23502,-0.04487619,0.13538592,-0.00020322,0.00005245,-0.00014811,0.0004
 7470,0.00043274,0.00009356,0.00014535,-0.00057583,-0.00001311,0.000669
 44,0.00100213,0.00075254,-0.00017117,-0.00029332,-0.00002150,0.0061407
 6,0.01937440,0.01209902,-0.00154360,0.00157130,0.00297450,-0.00047679,
 0.00008602,0.00173334,-0.00240376,-0.00568545,-0.00477918,-0.06793391,
 -0.06054878,-0.04301514,-0.00002439,-0.00003342,-0.00003271,-0.0000130
 9,-0.00000579,-0.00001984,-0.00030520,0.00007962,-0.00021245,-0.000038
 24,-0.00019585,0.00008126,0.00007238,-0.00003716,-0.00000768,-0.000011
 09,0.00010744,0.00010462,-0.00018814,-0.00028652,0.00027366,-0.0006062
 3,0.00126574,-0.00043336,0.00013165,-0.00005522,-0.00022038,-0.0000079
 3,0.00021502,-0.00008886,-0.00030835,-0.00049331,0.00028446,0.00090838
 ,0.00085872,0.00012244,-0.00810041,-0.01938452,-0.01515646,0.07379288,
 -0.00042165,0.00013015,-0.00037203,-0.00004880,0.00030603,0.00037976,0
 .00021967,-0.00068797,0.00061924,-0.00130484,0.00110241,-0.00059624,0.
 00001449,-0.00015316,-0.00016381,0.00026097,-0.00650431,-0.00461037,-0
 .00001243,-0.00107128,-0.00096988,-0.00068813,-0.00278641,0.00163377,-
 0.00551848,-0.01665956,-0.01247745,-0.05855550,-0.19833840,-0.10901261
 ,0.00004752,0.00007249,0.00001535,-0.00003314,0.00002237,-0.00003012,0
 .00014278,0.00013781,0.00029156,0.00053338,-0.00005176,0.00007028,-0.0
 0001629,0.00001583,0.00008400,0.00005452,0.00014163,0.00005933,0.00019
 285,-0.00029006,-0.00048135,0.00053966,-0.00050435,0.00009905,0.000055
 09,-0.00071343,-0.00061842,0.00001240,-0.00047393,-0.00024426,-0.00046
 766,-0.00109181,0.00048250,0.00050318,0.00147708,-0.00031551,0.0019408
 1,0.00775746,0.00472384,0.06254960,0.21816315,-0.00108192,0.00024836,-
 0.00069861,0.00055466,0.00074866,0.00100845,0.00027286,-0.00112284,0.0
 0096552,-0.00175467,0.00029349,-0.00044247,0.00015919,-0.00004792,-0.0
 0011585,-0.00473760,-0.01337384,-0.00900345,0.00284164,-0.00114588,-0.
 00223035,0.00114415,0.00322845,-0.00228412,0.00452827,0.01593679,0.011
 41216,-0.04208966,-0.11227132,-0.12773067,0.00012263,0.00004768,-0.000
 02304,-0.00004706,0.00002626,-0.00000743,-0.00016839,0.00004939,0.0000
 5693,0.00054995,0.00014835,0.00000765,-0.00007024,-0.00000870,-0.00002
 922,0.00010638,0.00008861,-0.00002754,0.00043916,-0.00013559,-0.000492
 94,0.00037254,-0.00060382,0.00041087,-0.00022040,0.00061871,0.00053225
 ,-0.00024169,0.00028135,0.00021519,0.00058800,0.00022780,-0.00027490,-
 0.00013219,-0.00058389,0.00155342,-0.00676498,-0.01408345,-0.01112783,
 0.04562937,0.12143337,0.13832598\\-0.00000218,-0.00000469,-0.00002578,
 -0.00001326,0.00000317,0.00002086,0.00000215,-0.00000979,0.00000679,-0
 .00002146,0.00000681,-0.00002772,0.00001543,0.00000027,-0.00000097,0.0
 0001305,0.00004116,0.00000812,0.00000627,-0.00002933,0.00000466,-0.000
 00483,0.00000344,0.00000084,0.00000177,0.00000049,0.00000565,-0.000006
 95,-0.00000298,-0.00000779,0.00000180,-0.00000007,-0.00000314,0.000001
 17,-0.00000077,0.00000046,-0.00000152,-0.00000102,-0.00000085,-0.00000
 094,-0.00000180,-0.00000204,-0.00000474,-0.00000551,0.00000022,0.00000
 107,0.00000245,-0.00000387,0.00000882,0.00000461,0.00001152,0.00000285
 ,-0.00000470,0.00000136,0.00000482,0.00000133,0.00000329,0.,-0.0000036
 3,0.00000414,-0.00000071,0.00000051,-0.00000089,-0.00000390,-0.0000008
 0,0.00000128,-0.00000121,0.00000218,0.00000253,0.00000249,-0.00000135,
 0.00000132\\\@
 The archive entry for this job was punched.


 THE MORE ACCURATE THE CALCULATIONS BECOME, THE MORE THE CONCEPTS
 TEND TO VANISH INTO THIN AIR.
     -- R.S. MULLIKEN, J.C.P. 43,S2(1965)
 Job cpu time:       0 days  1 hours 58 minutes 25.4 seconds.
 Elapsed time:       0 days  0 hours  7 minutes 30.2 seconds.
 File lengths (MBytes):  RWF=    294 Int=      0 D2E=      0 Chk=     14 Scr=      1
 Normal termination of Gaussian 16 at Tue Sep  6 23:21:27 2022.
