Job Start Time: Tue Sep  6 22:59:22 MDT 2022
SLURM Job ID: 71233
SLURM Job Name: TS2_crest_conf_1
 Entering Gaussian System, Link 0=/opt/apps/Gaussian/G16C/g16/g16
 Initial command:
 /opt/apps/Gaussian/G16C/g16/l1.exe "/tmp/Gau-984836.inp" -scrdir="/tmp/"
 Entering Link 1 = /opt/apps/Gaussian/G16C/g16/l1.exe PID=    984837.
  
 Copyright (c) 1988-2019, Gaussian, Inc.  All Rights Reserved.
  
 This is part of the Gaussian(R) 16 program.  It is based on
 the Gaussian(R) 09 system (copyright 2009, Gaussian, Inc.),
 the Gaussian(R) 03 system (copyright 2003, Gaussian, Inc.),
 the Gaussian(R) 98 system (copyright 1998, Gaussian, Inc.),
 the Gaussian(R) 94 system (copyright 1995, Gaussian, Inc.),
 the Gaussian 92(TM) system (copyright 1992, Gaussian, Inc.),
 the Gaussian 90(TM) system (copyright 1990, Gaussian, Inc.),
 the Gaussian 88(TM) system (copyright 1988, Gaussian, Inc.),
 the Gaussian 86(TM) system (copyright 1986, Carnegie Mellon
 University), and the Gaussian 82(TM) system (copyright 1983,
 Carnegie Mellon University). Gaussian is a federally registered
 trademark of Gaussian, Inc.
  
 This software contains proprietary and confidential information,
 including trade secrets, belonging to Gaussian, Inc.
  
 This software is provided under written license and may be
 used, copied, transmitted, or stored only in accord with that
 written license.
  
 The following legend is applicable only to US Government
 contracts under FAR:
  
                    RESTRICTED RIGHTS LEGEND
  
 Use, reproduction and disclosure by the US Government is
 subject to restrictions as set forth in subparagraphs (a)
 and (c) of the Commercial Computer Software - Restricted
 Rights clause in FAR 52.227-19.
  
 Gaussian, Inc.
 340 Quinnipiac St., Bldg. 40, Wallingford CT 06492
  
  
 ---------------------------------------------------------------
 Warning -- This program may not be used in any manner that
 competes with the business of Gaussian, Inc. or will provide
 assistance to any competitor of Gaussian, Inc.  The licensee
 of this program is prohibited from giving any competitor of
 Gaussian, Inc. access to this program.  By using this program,
 the user acknowledges that Gaussian, Inc. is engaged in the
 business of creating and licensing software in the field of
 computational chemistry and represents and warrants to the
 licensee that it is not a competitor of Gaussian, Inc. and that
 it will not use this program in any manner prohibited above.
 ---------------------------------------------------------------
  

 Cite this work as:
 Gaussian 16, Revision C.01,
 M. J. Frisch, G. W. Trucks, H. B. Schlegel, G. E. Scuseria, 
 M. A. Robb, J. R. Cheeseman, G. Scalmani, V. Barone, 
 G. A. Petersson, H. Nakatsuji, X. Li, M. Caricato, A. V. Marenich, 
 J. Bloino, B. G. Janesko, R. Gomperts, B. Mennucci, H. P. Hratchian, 
 J. V. Ortiz, A. F. Izmaylov, J. L. Sonnenberg, D. Williams-Young, 
 F. Ding, F. Lipparini, F. Egidi, J. Goings, B. Peng, A. Petrone, 
 T. Henderson, D. Ranasinghe, V. G. Zakrzewski, J. Gao, N. Rega, 
 G. Zheng, W. Liang, M. Hada, M. Ehara, K. Toyota, R. Fukuda, 
 J. Hasegawa, M. Ishida, T. Nakajima, Y. Honda, O. Kitao, H. Nakai, 
 T. Vreven, K. Throssell, J. A. Montgomery, Jr., J. E. Peralta, 
 F. Ogliaro, M. J. Bearpark, J. J. Heyd, E. N. Brothers, K. N. Kudin, 
 V. N. Staroverov, T. A. Keith, R. Kobayashi, J. Normand, 
 K. Raghavachari, A. P. Rendell, J. C. Burant, S. S. Iyengar, 
 J. Tomasi, M. Cossi, J. M. Millam, M. Klene, C. Adamo, R. Cammi, 
 J. W. Ochterski, R. L. Martin, K. Morokuma, O. Farkas, 
 J. B. Foresman, and D. J. Fox, Gaussian, Inc., Wallingford CT, 2019.
 
 ******************************************
 Gaussian 16:  AS64L-G16RevC.01  3-Jul-2019
                 6-Sep-2022 
 ******************************************
 %nprocshared=16
 Will use up to   16 processors via shared memory.
 %mem=72GB
 ---------------------------------------------
 # B3LYP/def2tzvp opt=(ts,calcfc,noeigen) freq
 ---------------------------------------------
 1/5=1,10=4,11=1,18=20,26=3,38=1/1,3;
 2/9=110,12=2,17=6,18=5,40=1/2;
 3/5=44,7=101,11=2,25=1,30=1,71=2,74=-5,140=1/1,2,3;
 4//1;
 5/5=2,38=5/2;
 8/6=4,10=90,11=11/1;
 11/6=1,8=1,9=11,15=111,16=1/1,2,10;
 10/6=1,13=1/2;
 6/7=2,8=2,9=2,10=2,28=1/1;
 7/10=1,25=1/1,2,3,16;
 1/5=1,10=4,11=1,18=20,26=3/3(2);
 2/9=110/2;
 99//99;
 2/9=110/2;
 3/5=44,7=101,11=2,25=1,30=1,71=1,74=-5/1,2,3;
 4/5=5,16=3,69=1/1;
 5/5=2,38=5/2;
 7//1,2,3,16;
 1/5=1,11=1,18=20,26=3/3(-5);
 2/9=110/2;
 6/7=2,8=2,9=2,10=2,19=2,28=1/1;
 99/9=1/99;
 ----------------
 TS2_crest_conf_1
 ----------------
 Symbolic Z-matrix:
 Charge =  0 Multiplicity = 1
 C                    -0.6047   -1.1143    0.3193 
 C                    -1.8197   -0.6635   -0.456 
 C                    -1.8198    0.6635   -0.4559 
 C                    -0.6047    1.1143    0.3193 
 C                    -0.5301    0.        1.3662 
 C                     0.5704   -0.7668   -0.6051 
 C                     0.5704    0.7668   -0.6051 
 C                     1.9797    0.7686    0.0156 
 C                     1.9797   -0.7686    0.0156 
 H                    -0.6155   -2.1407    0.6808 
 H                    -2.4939   -1.3297   -0.9626 
 H                    -2.4941    1.3297   -0.9624 
 H                    -0.6155    2.1407    0.6808 
 H                    -1.3933    0.        2.0309 
 H                     0.3793    0.        1.96 
 H                     0.495    -1.2753   -1.5661 
 H                     0.495     1.2753   -1.5661 
 H                     2.0449    1.2379    0.9953 
 H                     2.738     1.2077   -0.6297 
 H                     2.0448   -1.2378    0.9954 
 H                     2.738    -1.2078   -0.6295 
 

 GradGradGradGradGradGradGradGradGradGradGradGradGradGradGradGradGradGrad
 Berny optimization.
 Initialization pass.
                           ----------------------------
                           !    Initial Parameters    !
                           ! (Angstroms and Degrees)  !
 --------------------------                            --------------------------
 ! Name  Definition              Value          Derivative Info.                !
 --------------------------------------------------------------------------------
 ! R1    R(1,2)                  1.5101         calculate D2E/DX2 analytically  !
 ! R2    R(1,5)                  1.5308         calculate D2E/DX2 analytically  !
 ! R3    R(1,6)                  1.535          calculate D2E/DX2 analytically  !
 ! R4    R(1,10)                 1.0883         calculate D2E/DX2 analytically  !
 ! R5    R(2,3)                  1.327          calculate D2E/DX2 analytically  !
 ! R6    R(2,11)                 1.0747         calculate D2E/DX2 analytically  !
 ! R7    R(3,4)                  1.5102         calculate D2E/DX2 analytically  !
 ! R8    R(3,12)                 1.0747         calculate D2E/DX2 analytically  !
 ! R9    R(4,5)                  1.5308         calculate D2E/DX2 analytically  !
 ! R10   R(4,7)                  1.535          calculate D2E/DX2 analytically  !
 ! R11   R(4,13)                 1.0883         calculate D2E/DX2 analytically  !
 ! R12   R(5,14)                 1.0895         calculate D2E/DX2 analytically  !
 ! R13   R(5,15)                 1.0861         calculate D2E/DX2 analytically  !
 ! R14   R(6,7)                  1.5336         calculate D2E/DX2 analytically  !
 ! R15   R(6,9)                  1.5399         calculate D2E/DX2 analytically  !
 ! R16   R(6,16)                 1.0899         calculate D2E/DX2 analytically  !
 ! R17   R(7,8)                  1.5399         calculate D2E/DX2 analytically  !
 ! R18   R(7,17)                 1.0899         calculate D2E/DX2 analytically  !
 ! R19   R(8,9)                  1.5372         calculate D2E/DX2 analytically  !
 ! R20   R(8,18)                 1.0883         calculate D2E/DX2 analytically  !
 ! R21   R(8,19)                 1.0882         calculate D2E/DX2 analytically  !
 ! R22   R(9,20)                 1.0883         calculate D2E/DX2 analytically  !
 ! R23   R(9,21)                 1.0881         calculate D2E/DX2 analytically  !
 ! A1    A(2,1,5)               99.9637         calculate D2E/DX2 analytically  !
 ! A2    A(2,1,6)              103.8377         calculate D2E/DX2 analytically  !
 ! A3    A(2,1,10)             116.3661         calculate D2E/DX2 analytically  !
 ! A4    A(5,1,6)              102.1084         calculate D2E/DX2 analytically  !
 ! A5    A(5,1,10)             117.3784         calculate D2E/DX2 analytically  !
 ! A6    A(6,1,10)             114.9084         calculate D2E/DX2 analytically  !
 ! A7    A(1,2,3)              107.3697         calculate D2E/DX2 analytically  !
 ! A8    A(1,2,11)             124.1723         calculate D2E/DX2 analytically  !
 ! A9    A(3,2,11)             128.3069         calculate D2E/DX2 analytically  !
 ! A10   A(2,3,4)              107.3667         calculate D2E/DX2 analytically  !
 ! A11   A(2,3,12)             128.308          calculate D2E/DX2 analytically  !
 ! A12   A(4,3,12)             124.1735         calculate D2E/DX2 analytically  !
 ! A13   A(3,4,5)               99.961          calculate D2E/DX2 analytically  !
 ! A14   A(3,4,7)              103.8427         calculate D2E/DX2 analytically  !
 ! A15   A(3,4,13)             116.3641         calculate D2E/DX2 analytically  !
 ! A16   A(5,4,7)              102.1084         calculate D2E/DX2 analytically  !
 ! A17   A(5,4,13)             117.3784         calculate D2E/DX2 analytically  !
 ! A18   A(7,4,13)             114.9084         calculate D2E/DX2 analytically  !
 ! A19   A(1,5,4)               93.4277         calculate D2E/DX2 analytically  !
 ! A20   A(1,5,14)             112.2501         calculate D2E/DX2 analytically  !
 ! A21   A(1,5,15)             114.5015         calculate D2E/DX2 analytically  !
 ! A22   A(4,5,14)             112.2501         calculate D2E/DX2 analytically  !
 ! A23   A(4,5,15)             114.5015         calculate D2E/DX2 analytically  !
 ! A24   A(14,5,15)            109.2594         calculate D2E/DX2 analytically  !
 ! A25   A(1,6,7)              103.0846         calculate D2E/DX2 analytically  !
 ! A26   A(1,6,9)              117.2327         calculate D2E/DX2 analytically  !
 ! A27   A(1,6,16)             111.8658         calculate D2E/DX2 analytically  !
 ! A28   A(7,6,9)               90.067          calculate D2E/DX2 analytically  !
 ! A29   A(7,6,16)             117.8123         calculate D2E/DX2 analytically  !
 ! A30   A(9,6,16)             114.72           calculate D2E/DX2 analytically  !
 ! A31   A(4,7,6)              103.0846         calculate D2E/DX2 analytically  !
 ! A32   A(4,7,8)              117.2327         calculate D2E/DX2 analytically  !
 ! A33   A(4,7,17)             111.8658         calculate D2E/DX2 analytically  !
 ! A34   A(6,7,8)               90.067          calculate D2E/DX2 analytically  !
 ! A35   A(6,7,17)             117.8123         calculate D2E/DX2 analytically  !
 ! A36   A(8,7,17)             114.72           calculate D2E/DX2 analytically  !
 ! A37   A(7,8,9)               89.933          calculate D2E/DX2 analytically  !
 ! A38   A(7,8,18)             114.7207         calculate D2E/DX2 analytically  !
 ! A39   A(7,8,19)             113.5262         calculate D2E/DX2 analytically  !
 ! A40   A(9,8,18)             115.5463         calculate D2E/DX2 analytically  !
 ! A41   A(9,8,19)             113.7972         calculate D2E/DX2 analytically  !
 ! A42   A(18,8,19)            108.5467         calculate D2E/DX2 analytically  !
 ! A43   A(6,9,8)               89.933          calculate D2E/DX2 analytically  !
 ! A44   A(6,9,20)             114.7167         calculate D2E/DX2 analytically  !
 ! A45   A(6,9,21)             113.5326         calculate D2E/DX2 analytically  !
 ! A46   A(8,9,20)             115.5394         calculate D2E/DX2 analytically  !
 ! A47   A(8,9,21)             113.8047         calculate D2E/DX2 analytically  !
 ! A48   A(20,9,21)            108.5443         calculate D2E/DX2 analytically  !
 ! D1    D(5,1,2,3)             33.9627         calculate D2E/DX2 analytically  !
 ! D2    D(5,1,2,11)          -150.1841         calculate D2E/DX2 analytically  !
 ! D3    D(6,1,2,3)            -71.2624         calculate D2E/DX2 analytically  !
 ! D4    D(6,1,2,11)           104.5907         calculate D2E/DX2 analytically  !
 ! D5    D(10,1,2,3)           161.4215         calculate D2E/DX2 analytically  !
 ! D6    D(10,1,2,11)          -22.7253         calculate D2E/DX2 analytically  !
 ! D7    D(2,1,5,4)            -51.0563         calculate D2E/DX2 analytically  !
 ! D8    D(2,1,5,14)            64.6877         calculate D2E/DX2 analytically  !
 ! D9    D(2,1,5,15)          -169.9949         calculate D2E/DX2 analytically  !
 ! D10   D(6,1,5,4)             55.5652         calculate D2E/DX2 analytically  !
 ! D11   D(6,1,5,14)           171.3091         calculate D2E/DX2 analytically  !
 ! D12   D(6,1,5,15)           -63.3735         calculate D2E/DX2 analytically  !
 ! D13   D(10,1,5,4)          -177.8373         calculate D2E/DX2 analytically  !
 ! D14   D(10,1,5,14)          -62.0934         calculate D2E/DX2 analytically  !
 ! D15   D(10,1,5,15)           63.224          calculate D2E/DX2 analytically  !
 ! D16   D(2,1,6,7)             68.1065         calculate D2E/DX2 analytically  !
 ! D17   D(2,1,6,9)            165.0544         calculate D2E/DX2 analytically  !
 ! D18   D(2,1,6,16)           -59.441          calculate D2E/DX2 analytically  !
 ! D19   D(5,1,6,7)            -35.4907         calculate D2E/DX2 analytically  !
 ! D20   D(5,1,6,9)             61.4572         calculate D2E/DX2 analytically  !
 ! D21   D(5,1,6,16)          -163.0382         calculate D2E/DX2 analytically  !
 ! D22   D(10,1,6,7)          -163.6745         calculate D2E/DX2 analytically  !
 ! D23   D(10,1,6,9)           -66.7266         calculate D2E/DX2 analytically  !
 ! D24   D(10,1,6,16)           68.778          calculate D2E/DX2 analytically  !
 ! D25   D(1,2,3,4)              0.0092         calculate D2E/DX2 analytically  !
 ! D26   D(1,2,3,12)           175.6273         calculate D2E/DX2 analytically  !
 ! D27   D(11,2,3,4)          -175.6181         calculate D2E/DX2 analytically  !
 ! D28   D(11,2,3,12)            0.0            calculate D2E/DX2 analytically  !
 ! D29   D(2,3,4,5)            -33.9776         calculate D2E/DX2 analytically  !
 ! D30   D(2,3,4,7)             71.248          calculate D2E/DX2 analytically  !
 ! D31   D(2,3,4,13)          -161.4333         calculate D2E/DX2 analytically  !
 ! D32   D(12,3,4,5)           150.178          calculate D2E/DX2 analytically  !
 ! D33   D(12,3,4,7)          -104.5964         calculate D2E/DX2 analytically  !
 ! D34   D(12,3,4,13)           22.7223         calculate D2E/DX2 analytically  !
 ! D35   D(3,4,5,1)             51.0609         calculate D2E/DX2 analytically  !
 ! D36   D(3,4,5,14)           -64.683          calculate D2E/DX2 analytically  !
 ! D37   D(3,4,5,15)           169.9996         calculate D2E/DX2 analytically  !
 ! D38   D(7,4,5,1)            -55.5652         calculate D2E/DX2 analytically  !
 ! D39   D(7,4,5,14)          -171.3091         calculate D2E/DX2 analytically  !
 ! D40   D(7,4,5,15)            63.3735         calculate D2E/DX2 analytically  !
 ! D41   D(13,4,5,1)           177.8373         calculate D2E/DX2 analytically  !
 ! D42   D(13,4,5,14)           62.0934         calculate D2E/DX2 analytically  !
 ! D43   D(13,4,5,15)          -63.224          calculate D2E/DX2 analytically  !
 ! D44   D(3,4,7,6)            -68.1051         calculate D2E/DX2 analytically  !
 ! D45   D(3,4,7,8)           -165.053          calculate D2E/DX2 analytically  !
 ! D46   D(3,4,7,17)            59.4424         calculate D2E/DX2 analytically  !
 ! D47   D(5,4,7,6)             35.4907         calculate D2E/DX2 analytically  !
 ! D48   D(5,4,7,8)            -61.4572         calculate D2E/DX2 analytically  !
 ! D49   D(5,4,7,17)           163.0382         calculate D2E/DX2 analytically  !
 ! D50   D(13,4,7,6)           163.6745         calculate D2E/DX2 analytically  !
 ! D51   D(13,4,7,8)            66.7266         calculate D2E/DX2 analytically  !
 ! D52   D(13,4,7,17)          -68.778          calculate D2E/DX2 analytically  !
 ! D53   D(1,6,7,4)              0.0            calculate D2E/DX2 analytically  !
 ! D54   D(1,6,7,8)            118.0392         calculate D2E/DX2 analytically  !
 ! D55   D(1,6,7,17)          -123.7044         calculate D2E/DX2 analytically  !
 ! D56   D(9,6,7,4)           -118.0392         calculate D2E/DX2 analytically  !
 ! D57   D(9,6,7,8)              0.0            calculate D2E/DX2 analytically  !
 ! D58   D(9,6,7,17)           118.2564         calculate D2E/DX2 analytically  !
 ! D59   D(16,6,7,4)           123.7044         calculate D2E/DX2 analytically  !
 ! D60   D(16,6,7,8)          -118.2564         calculate D2E/DX2 analytically  !
 ! D61   D(16,6,7,17)            0.0            calculate D2E/DX2 analytically  !
 ! D62   D(1,6,9,8)           -104.7862         calculate D2E/DX2 analytically  !
 ! D63   D(1,6,9,20)            13.5129         calculate D2E/DX2 analytically  !
 ! D64   D(1,6,9,21)           139.1275         calculate D2E/DX2 analytically  !
 ! D65   D(7,6,9,8)              0.0            calculate D2E/DX2 analytically  !
 ! D66   D(7,6,9,20)           118.2991         calculate D2E/DX2 analytically  !
 ! D67   D(7,6,9,21)          -116.0863         calculate D2E/DX2 analytically  !
 ! D68   D(16,6,9,8)           120.943          calculate D2E/DX2 analytically  !
 ! D69   D(16,6,9,20)         -120.7579         calculate D2E/DX2 analytically  !
 ! D70   D(16,6,9,21)            4.8566         calculate D2E/DX2 analytically  !
 ! D71   D(4,7,8,9)            104.7862         calculate D2E/DX2 analytically  !
 ! D72   D(4,7,8,18)           -13.5217         calculate D2E/DX2 analytically  !
 ! D73   D(4,7,8,19)          -139.1372         calculate D2E/DX2 analytically  !
 ! D74   D(6,7,8,9)              0.0            calculate D2E/DX2 analytically  !
 ! D75   D(6,7,8,18)          -118.3079         calculate D2E/DX2 analytically  !
 ! D76   D(6,7,8,19)           116.0766         calculate D2E/DX2 analytically  !
 ! D77   D(17,7,8,9)          -120.943          calculate D2E/DX2 analytically  !
 ! D78   D(17,7,8,18)          120.7492         calculate D2E/DX2 analytically  !
 ! D79   D(17,7,8,19)           -4.8664         calculate D2E/DX2 analytically  !
 ! D80   D(7,8,9,6)              0.0            calculate D2E/DX2 analytically  !
 ! D81   D(7,8,9,20)          -117.5715         calculate D2E/DX2 analytically  !
 ! D82   D(7,8,9,21)           115.8414         calculate D2E/DX2 analytically  !
 ! D83   D(18,8,9,6)           117.5777         calculate D2E/DX2 analytically  !
 ! D84   D(18,8,9,20)            0.0062         calculate D2E/DX2 analytically  !
 ! D85   D(18,8,9,21)         -126.581          calculate D2E/DX2 analytically  !
 ! D86   D(19,8,9,6)          -115.8326         calculate D2E/DX2 analytically  !
 ! D87   D(19,8,9,20)          126.5959         calculate D2E/DX2 analytically  !
 ! D88   D(19,8,9,21)            0.0088         calculate D2E/DX2 analytically  !
 --------------------------------------------------------------------------------
 Trust Radius=3.00D-01 FncErr=1.00D-07 GrdErr=1.00D-06 EigMax=2.50D+02 EigMin=1.00D-04
 Number of steps in this run=    126 maximum allowed number of steps=    126.
 Search for a saddle point of order  1.
 GradGradGradGradGradGradGradGradGradGradGradGradGradGradGradGradGradGrad

                          Input orientation:                          
 ---------------------------------------------------------------------
 Center     Atomic      Atomic             Coordinates (Angstroms)
 Number     Number       Type             X           Y           Z
 ---------------------------------------------------------------------
      1          6           0       -0.604700   -1.114300    0.319300
      2          6           0       -1.819700   -0.663500   -0.456000
      3          6           0       -1.819800    0.663500   -0.455900
      4          6           0       -0.604700    1.114300    0.319300
      5          6           0       -0.530100    0.000000    1.366200
      6          6           0        0.570400   -0.766800   -0.605100
      7          6           0        0.570400    0.766800   -0.605100
      8          6           0        1.979700    0.768600    0.015600
      9          6           0        1.979700   -0.768600    0.015600
     10          1           0       -0.615500   -2.140700    0.680800
     11          1           0       -2.493900   -1.329700   -0.962600
     12          1           0       -2.494100    1.329700   -0.962400
     13          1           0       -0.615500    2.140700    0.680800
     14          1           0       -1.393300    0.000000    2.030900
     15          1           0        0.379300    0.000000    1.960000
     16          1           0        0.495000   -1.275300   -1.566100
     17          1           0        0.495000    1.275300   -1.566100
     18          1           0        2.044900    1.237900    0.995300
     19          1           0        2.738000    1.207700   -0.629700
     20          1           0        2.044800   -1.237800    0.995400
     21          1           0        2.738000   -1.207800   -0.629500
 ---------------------------------------------------------------------
                    Distance matrix (angstroms):
                    1          2          3          4          5
     1  C    0.000000
     2  C    1.510144   0.000000
     3  C    2.288662   1.327000   0.000000
     4  C    2.228600   2.288643   1.510173   0.000000
     5  C    1.530761   2.328887   2.328864   1.530761   0.000000
     6  C    1.534970   2.396973   2.789458   2.402897   2.384346
     7  C    2.402897   2.789367   2.397079   1.534970   2.384346
     8  C    3.211957   4.087635   3.830086   2.625046   2.951942
     9  C    2.625046   3.829999   4.087716   3.211957   2.951942
    10  H    1.088254   2.219129   3.256680   3.275030   2.249369
    11  H    2.293195   1.074715   2.164256   3.344470   3.323841
    12  H    3.344506   2.164279   1.074730   2.293248   3.323819
    13  H    3.275030   3.256678   2.219132   1.088254   2.249369
    14  H    2.189322   2.608969   2.608890   2.189322   1.089468
    15  H    2.214005   3.333600   3.333594   2.214005   1.086097
    16  H    2.188606   2.639026   3.217109   3.236396   3.357917
    17  H    3.236396   3.217002   2.639156   2.188606   3.357917
    18  H    3.606966   4.544967   4.167952   2.737267   2.881074
    19  H    4.179226   4.929928   4.593463   3.476056   4.015300
    20  H    2.737191   4.167822   4.544925   3.606846   2.880929
    21  H    3.476004   4.593364   4.930055   4.179236   4.015231
                    6          7          8          9         10
     6  C    0.000000
     7  C    1.533600   0.000000
     8  C    2.174591   1.539934   0.000000
     9  C    1.539934   2.174591   1.537200   0.000000
    10  H    2.224297   3.393148   3.954944   3.010019   0.000000
    11  H    3.136016   3.730021   5.037146   4.613546   2.624285
    12  H    3.730166   3.136189   4.613697   5.037284   4.274684
    13  H    3.393148   2.224297   3.010019   3.954944   4.281400
    14  H    3.375292   3.375292   4.003662   4.003662   2.647705
    15  H    2.684071   2.684071   2.633005   2.633005   2.684879
    16  H    1.089852   2.258180   2.980543   2.227746   2.651544
    17  H    2.258180   1.089852   2.227746   2.980543   4.236841
    18  H    2.958759   2.226514   1.088258   2.233854   4.311795
    19  H    2.932191   2.212123   1.088228   2.212960   4.916824
    20  H    2.226499   2.958695   2.233805   1.088299   2.826906
    21  H    2.212141   2.932257   2.212991   1.088150   3.719294
                   11         12         13         14         15
    11  H    0.000000
    12  H    2.659400   0.000000
    13  H    4.274673   2.624303   0.000000
    14  H    3.455498   3.455388   2.647705   0.000000
    15  H    4.308709   4.308706   2.684879   1.774017   0.000000
    16  H    3.049704   4.010636   4.236841   4.257990   3.751421
    17  H    4.010456   3.049940   2.651544   4.257990   3.751421
    18  H    5.570157   4.944041   2.826957   3.798168   2.288507
    19  H    5.824260   5.244087   3.719390   5.060136   3.705206
    20  H    4.943886   5.570157   4.311662   3.798018   2.288338
    21  H    5.243910   5.824483   4.916838   5.060054   3.705099
                   16         17         18         19         20
    16  H    0.000000
    17  H    2.550600   0.000000
    18  H    3.908853   2.994054   0.000000
    19  H    3.474649   2.431556   1.766897   0.000000
    20  H    2.994089   3.908815   2.475700   3.016943   0.000000
    21  H    2.431630   3.474774   3.016921   2.415500   1.766841
                   21
    21  H    0.000000
 Stoichiometry    C9H12
 Framework group  C1[X(C9H12)]
 Deg. of freedom    57
 Full point group                 C1      NOp   1
 Largest Abelian subgroup         C1      NOp   1
 Largest concise Abelian subgroup C1      NOp   1
                         Standard orientation:                         
 ---------------------------------------------------------------------
 Center     Atomic      Atomic             Coordinates (Angstroms)
 Number     Number       Type             X           Y           Z
 ---------------------------------------------------------------------
      1          6           0        0.628224    1.114297    0.314544
      2          6           0        1.846845    0.663525   -0.455067
      3          6           0        1.846955   -0.663475   -0.455000
      4          6           0        0.628241   -1.114303    0.314488
      5          6           0        0.548729   -0.000030    1.361055
      6          6           0       -0.542531    0.766811   -0.615359
      7          6           0       -0.542519   -0.766789   -0.615398
      8          6           0       -1.954711   -0.768615   -0.001306
      9          6           0       -1.954723    0.768585   -0.001268
     10          1           0        0.637322    2.140688    0.676116
     11          1           0        2.523406    1.329743   -0.958487
     12          1           0        2.523625   -1.329657   -0.958353
     13          1           0        0.637355   -2.140712    0.676009
     14          1           0        1.408806   -0.000040    2.029791
     15          1           0       -0.363443   -0.000052    1.950589
     16          1           0       -0.462634    1.275336   -1.575983
     17          1           0       -0.462614   -1.275264   -1.576047
     18          1           0       -2.024496   -1.237940    0.978066
     19          1           0       -2.709977   -1.207704   -0.650162
     20          1           0       -2.024415    1.237760    0.978228
     21          1           0       -2.709996    1.207796   -0.649902
 ---------------------------------------------------------------------
 Rotational constants (GHZ):           3.4156463           1.7419299           1.5612993
 Standard basis: def2TZVP (5D, 7F)
 There are   396 symmetry adapted cartesian basis functions of A   symmetry.
 There are   351 symmetry adapted basis functions of A   symmetry.
   351 basis functions,   555 primitive gaussians,   396 cartesian basis functions
    33 alpha electrons       33 beta electrons
       nuclear repulsion energy       467.1796128951 Hartrees.
 NAtoms=   21 NActive=   21 NUniq=   21 SFac= 1.00D+00 NAtFMM=   60 NAOKFM=F Big=F
 Integral buffers will be    131072 words long.
 Raffenetti 2 integral format.
 Two-electron integral symmetry is turned on.
 One-electron integrals computed using PRISM.
   1 Symmetry operations used in ECPInt.
 ECPInt:  NShTT=   10878 NPrTT=   32112 LenC2=   10768 LenP2D=   26152.
 LDataN:  DoStor=T MaxTD1= 6 Len=  172
 NBasis=   351 RedAO= T EigKep=  2.14D-05  NBF=   351
 NBsUse=   351 1.00D-06 EigRej= -1.00D+00 NBFU=   351
 ExpMin= 9.52D-02 ExpMax= 1.36D+04 ExpMxC= 4.63D+02 IAcc=3 IRadAn=         5 AccDes= 0.00D+00
 Harris functional with IExCor=  402 and IRadAn=       5 diagonalized for initial guess.
 HarFok:  IExCor=  402 AccDes= 0.00D+00 IRadAn=         5 IDoV= 1 UseB2=F ITyADJ=14
 ICtDFT=  3500011 ScaDFX=  1.000000  1.000000  1.000000  1.000000
 FoFCou: FMM=F IPFlag=           0 FMFlag=      100000 FMFlg1=           0
         NFxFlg=           0 DoJE=T BraDBF=F KetDBF=T FulRan=T
         wScrn=  0.000000 ICntrl=       500 IOpCl=  0 I1Cent=   200000004 NGrid=           0
         NMat0=    1 NMatS0=      1 NMatT0=    0 NMatD0=    1 NMtDS0=    0 NMtDT0=    0
 Petite list used in FoFCou.
 Requested convergence on RMS density matrix=1.00D-08 within 128 cycles.
 Requested convergence on MAX density matrix=1.00D-06.
 Requested convergence on             energy=1.00D-06.
 No special actions if energy rises.
 Integral accuracy reduced to 1.0D-05 until final iterations.
 Initial convergence to 1.0D-05 achieved.  Increase integral accuracy.
 SCF Done:  E(RB3LYP) =  -350.237627659     A.U. after   13 cycles
            NFock= 13  Conv=0.43D-08     -V/T= 2.0045
 DoSCS=F DFT=T ScalE2(SS,OS)=  1.000000  1.000000
 Range of M.O.s used for correlation:     1   351
 NBasis=   351 NAE=    33 NBE=    33 NFC=     0 NFV=     0
 NROrb=    351 NOA=    33 NOB=    33 NVA=   318 NVB=   318

 **** Warning!!: The largest alpha MO coefficient is  0.37025750D+02

   1 Symmetry operations used in ECPInt.
 ECPInt:  NShTT=   10878 NPrTT=   32112 LenC2=   10768 LenP2D=   26152.
 LDataN:  DoStor=T MaxTD1= 7 Len=  274
 Symmetrizing basis deriv contribution to polar:
 IMax=3 JMax=2 DiffMx= 0.00D+00
 G2DrvN: will do    22 centers at a time, making    1 passes.
 Calling FoFCou, ICntrl=  3107 FMM=F I1Cent=   0 AccDes= 0.00D+00.
 End of G2Drv F.D. properties file   721 does not exist.
 End of G2Drv F.D. properties file   722 does not exist.
 End of G2Drv F.D. properties file   788 does not exist.
          IDoAtm=111111111111111111111
          Differentiating once with respect to nuclear coordinates.
 Keep R1 ints in memory in canonical form, NReq=1939464949.
          There are    66 degrees of freedom in the 1st order CPHF.  IDoFFX=6 NUNeed=     0.
     60 vectors produced by pass  0 Test12= 1.59D-14 1.52D-09 XBig12= 8.63D-02 8.00D-02.
 AX will form    60 AO Fock derivatives at one time.
     60 vectors produced by pass  1 Test12= 1.59D-14 1.52D-09 XBig12= 1.87D-02 3.92D-02.
     60 vectors produced by pass  2 Test12= 1.59D-14 1.52D-09 XBig12= 2.20D-04 1.98D-03.
     60 vectors produced by pass  3 Test12= 1.59D-14 1.52D-09 XBig12= 8.65D-07 1.20D-04.
     60 vectors produced by pass  4 Test12= 1.59D-14 1.52D-09 XBig12= 1.51D-09 4.43D-06.
     49 vectors produced by pass  5 Test12= 1.59D-14 1.52D-09 XBig12= 2.19D-12 2.16D-07.
     17 vectors produced by pass  6 Test12= 1.59D-14 1.52D-09 XBig12= 3.82D-15 8.94D-09.
 InvSVY:  IOpt=1 It=  1 EMax= 5.00D-16
 Solved reduced A of dimension   366 with    66 vectors.
 End of Minotr F.D. properties file   721 does not exist.
 End of Minotr F.D. properties file   722 does not exist.
 End of Minotr F.D. properties file   788 does not exist.

 **********************************************************************

            Population analysis using the SCF Density.

 **********************************************************************

 Orbital symmetries:
       Occupied  (A) (A) (A) (A) (A) (A) (A) (A) (A) (A) (A) (A)
                 (A) (A) (A) (A) (A) (A) (A) (A) (A) (A) (A) (A)
                 (A) (A) (A) (A) (A) (A) (A) (A) (A)
       Virtual   (A) (A) (A) (A) (A) (A) (A) (A) (A) (A) (A) (A)
                 (A) (A) (A) (A) (A) (A) (A) (A) (A) (A) (A) (A)
                 (A) (A) (A) (A) (A) (A) (A) (A) (A) (A) (A) (A)
                 (A) (A) (A) (A) (A) (A) (A) (A) (A) (A) (A) (A)
                 (A) (A) (A) (A) (A) (A) (A) (A) (A) (A) (A) (A)
                 (A) (A) (A) (A) (A) (A) (A) (A) (A) (A) (A) (A)
                 (A) (A) (A) (A) (A) (A) (A) (A) (A) (A) (A) (A)
                 (A) (A) (A) (A) (A) (A) (A) (A) (A) (A) (A) (A)
                 (A) (A) (A) (A) (A) (A) (A) (A) (A) (A) (A) (A)
                 (A) (A) (A) (A) (A) (A) (A) (A) (A) (A) (A) (A)
                 (A) (A) (A) (A) (A) (A) (A) (A) (A) (A) (A) (A)
                 (A) (A) (A) (A) (A) (A) (A) (A) (A) (A) (A) (A)
                 (A) (A) (A) (A) (A) (A) (A) (A) (A) (A) (A) (A)
                 (A) (A) (A) (A) (A) (A) (A) (A) (A) (A) (A) (A)
                 (A) (A) (A) (A) (A) (A) (A) (A) (A) (A) (A) (A)
                 (A) (A) (A) (A) (A) (A) (A) (A) (A) (A) (A) (A)
                 (A) (A) (A) (A) (A) (A) (A) (A) (A) (A) (A) (A)
                 (A) (A) (A) (A) (A) (A) (A) (A) (A) (A) (A) (A)
                 (A) (A) (A) (A) (A) (A) (A) (A) (A) (A) (A) (A)
                 (A) (A) (A) (A) (A) (A) (A) (A) (A) (A) (A) (A)
                 (A) (A) (A) (A) (A) (A) (A) (A) (A) (A) (A) (A)
                 (A) (A) (A) (A) (A) (A) (A) (A) (A) (A) (A) (A)
                 (A) (A) (A) (A) (A) (A) (A) (A) (A) (A) (A) (A)
                 (A) (A) (A) (A) (A) (A) (A) (A) (A) (A) (A) (A)
                 (A) (A) (A) (A) (A) (A) (A) (A) (A) (A) (A) (A)
                 (A) (A) (A) (A) (A) (A) (A) (A) (A) (A) (A) (A)
                 (A) (A) (A) (A) (A) (A)
 The electronic state is 1-A.
 Alpha  occ. eigenvalues --  -10.17059 -10.17057 -10.16426 -10.16406 -10.16033
 Alpha  occ. eigenvalues --  -10.16021 -10.15960 -10.15940 -10.15928  -0.90284
 Alpha  occ. eigenvalues --   -0.81608  -0.72484  -0.70922  -0.66415  -0.63146
 Alpha  occ. eigenvalues --   -0.55662  -0.53297  -0.51849  -0.50811  -0.50305
 Alpha  occ. eigenvalues --   -0.46655  -0.41806  -0.39778  -0.37961  -0.37672
 Alpha  occ. eigenvalues --   -0.36599  -0.34452  -0.33928  -0.32998  -0.30896
 Alpha  occ. eigenvalues --   -0.29457  -0.28320  -0.24200
 Alpha virt. eigenvalues --    0.00954   0.03925   0.05239   0.06200   0.06244
 Alpha virt. eigenvalues --    0.08587   0.08940   0.09591   0.10033   0.10673
 Alpha virt. eigenvalues --    0.13070   0.13109   0.14082   0.14394   0.15801
 Alpha virt. eigenvalues --    0.16028   0.16883   0.17166   0.18284   0.20593
 Alpha virt. eigenvalues --    0.20663   0.21998   0.23706   0.24140   0.25344
 Alpha virt. eigenvalues --    0.25413   0.27724   0.28563   0.29631   0.30086
 Alpha virt. eigenvalues --    0.30769   0.32582   0.33649   0.36061   0.36733
 Alpha virt. eigenvalues --    0.37150   0.38099   0.39211   0.39551   0.39845
 Alpha virt. eigenvalues --    0.39931   0.42133   0.42742   0.42898   0.43918
 Alpha virt. eigenvalues --    0.44623   0.44658   0.45106   0.45502   0.45825
 Alpha virt. eigenvalues --    0.46281   0.46569   0.46887   0.48205   0.49366
 Alpha virt. eigenvalues --    0.51185   0.51382   0.52358   0.52894   0.53580
 Alpha virt. eigenvalues --    0.55942   0.58791   0.61538   0.63113   0.64373
 Alpha virt. eigenvalues --    0.64448   0.66543   0.70488   0.74175   0.74399
 Alpha virt. eigenvalues --    0.76792   0.78308   0.80934   0.83907   0.84471
 Alpha virt. eigenvalues --    0.85567   0.87495   0.87809   0.88658   0.92167
 Alpha virt. eigenvalues --    0.94990   0.96725   0.97130   0.97730   1.01247
 Alpha virt. eigenvalues --    1.01628   1.01948   1.03964   1.04147   1.04567
 Alpha virt. eigenvalues --    1.08274   1.08881   1.11293   1.12779   1.13902
 Alpha virt. eigenvalues --    1.14029   1.17667   1.17787   1.18574   1.18644
 Alpha virt. eigenvalues --    1.21756   1.22468   1.24037   1.24143   1.26134
 Alpha virt. eigenvalues --    1.27245   1.27445   1.29229   1.32165   1.32867
 Alpha virt. eigenvalues --    1.33844   1.36558   1.39635   1.41378   1.44026
 Alpha virt. eigenvalues --    1.47779   1.48568   1.51279   1.51897   1.52338
 Alpha virt. eigenvalues --    1.53941   1.58018   1.59392   1.60765   1.61113
 Alpha virt. eigenvalues --    1.65009   1.66616   1.67967   1.70018   1.70792
 Alpha virt. eigenvalues --    1.73277   1.73398   1.75072   1.78477   1.80617
 Alpha virt. eigenvalues --    1.81302   1.82446   1.85556   1.87827   1.91398
 Alpha virt. eigenvalues --    1.91943   1.96317   1.97176   1.97809   1.99671
 Alpha virt. eigenvalues --    2.00414   2.02591   2.04538   2.05508   2.06959
 Alpha virt. eigenvalues --    2.08746   2.12000   2.14821   2.17928   2.20781
 Alpha virt. eigenvalues --    2.23422   2.23434   2.25116   2.26397   2.28940
 Alpha virt. eigenvalues --    2.34287   2.34944   2.36913   2.38574   2.39813
 Alpha virt. eigenvalues --    2.40800   2.42699   2.43433   2.46553   2.46765
 Alpha virt. eigenvalues --    2.48942   2.50966   2.51684   2.55930   2.56562
 Alpha virt. eigenvalues --    2.58321   2.59539   2.60330   2.61563   2.62886
 Alpha virt. eigenvalues --    2.64963   2.66370   2.66679   2.67646   2.70229
 Alpha virt. eigenvalues --    2.70702   2.71282   2.72699   2.78124   2.78140
 Alpha virt. eigenvalues --    2.79019   2.80837   2.81301   2.81463   2.84204
 Alpha virt. eigenvalues --    2.85718   2.87086   2.87342   2.89550   2.89568
 Alpha virt. eigenvalues --    2.90288   2.93222   2.94909   2.95575   2.96591
 Alpha virt. eigenvalues --    2.98773   2.98940   2.99884   3.00864   3.02154
 Alpha virt. eigenvalues --    3.06334   3.07478   3.08173   3.10714   3.13256
 Alpha virt. eigenvalues --    3.14584   3.14633   3.17141   3.18470   3.20243
 Alpha virt. eigenvalues --    3.20429   3.21098   3.28860   3.28924   3.29194
 Alpha virt. eigenvalues --    3.30786   3.32168   3.32657   3.37940   3.38313
 Alpha virt. eigenvalues --    3.40308   3.41713   3.41829   3.46709   3.46831
 Alpha virt. eigenvalues --    3.49039   3.50864   3.51834   3.51959   3.53373
 Alpha virt. eigenvalues --    3.53984   3.53999   3.55286   3.59322   3.59415
 Alpha virt. eigenvalues --    3.64214   3.66578   3.69688   3.70263   3.70321
 Alpha virt. eigenvalues --    3.73795   3.74033   3.76568   3.80428   3.81306
 Alpha virt. eigenvalues --    3.83044   3.84883   3.85342   3.93611   3.94228
 Alpha virt. eigenvalues --    3.97437   4.01159   4.01983   4.04177   4.04297
 Alpha virt. eigenvalues --    4.04963   4.06374   4.08493   4.13039   4.17595
 Alpha virt. eigenvalues --    4.18139   4.19530   4.23498   4.23642   4.26153
 Alpha virt. eigenvalues --    4.27406   4.30943   4.32470   4.34065   4.35973
 Alpha virt. eigenvalues --    4.39814   4.40266   4.43488   4.43720   4.45774
 Alpha virt. eigenvalues --    4.47031   4.49338   4.52575   4.55586   4.56877
 Alpha virt. eigenvalues --    4.57434   4.58556   4.67767   4.68976   4.70416
 Alpha virt. eigenvalues --    4.78653   4.81029   4.88053   4.89250   4.98006
 Alpha virt. eigenvalues --    4.99067   5.01046   5.05808   5.06164   5.11020
 Alpha virt. eigenvalues --    5.12548   5.16579   5.24549   5.40830  22.28060
 Alpha virt. eigenvalues --   22.39123  22.54418  22.59790  22.59945  22.69347
 Alpha virt. eigenvalues --   22.74377  22.87154  23.01100
          Condensed to atoms (all electrons):
               1          2          3          4          5          6
     1  C    4.943829   0.293474  -0.052714  -0.052609   0.317328   0.308289
     2  C    0.293474   5.131491   0.589378  -0.052729  -0.060068  -0.006340
     3  C   -0.052714   0.589378   5.131486   0.293496  -0.060046  -0.062379
     4  C   -0.052609  -0.052729   0.293496   4.943808   0.317300  -0.013281
     5  C    0.317328  -0.060068  -0.060046   0.317300   5.053367  -0.074717
     6  C    0.308289  -0.006340  -0.062379  -0.013281  -0.074717   4.965114
     7  C   -0.013283  -0.062388  -0.006358   0.308332  -0.074736   0.403839
     8  C   -0.007716   0.005179   0.005712  -0.000752   0.004279  -0.133418
     9  C   -0.000747   0.005713   0.005177  -0.007709   0.004267   0.321411
    10  H    0.425893  -0.056658   0.012328   0.010029  -0.047670  -0.045864
    11  H   -0.052633   0.422101  -0.040151   0.007248   0.008955   0.003073
    12  H    0.007249  -0.040152   0.422097  -0.052631   0.008957  -0.001203
    13  H    0.010030   0.012330  -0.056659   0.425890  -0.047669   0.009156
    14  H   -0.024152   0.002187   0.002186  -0.024149   0.387133   0.008911
    15  H   -0.044609   0.008283   0.008281  -0.044605   0.417715   0.003615
    16  H   -0.048008  -0.005897   0.007126  -0.000199   0.014491   0.390116
    17  H   -0.000197   0.007127  -0.005891  -0.048010   0.014492  -0.032333
    18  H   -0.001412   0.000832  -0.001233  -0.007583  -0.004391   0.008544
    19  H   -0.000025  -0.000618   0.000080   0.004719  -0.000168   0.002992
    20  H   -0.007584  -0.001234   0.000833  -0.001414  -0.004394  -0.027919
    21  H    0.004719   0.000080  -0.000618  -0.000025  -0.000168  -0.018263
               7          8          9         10         11         12
     1  C   -0.013283  -0.007716  -0.000747   0.425893  -0.052633   0.007249
     2  C   -0.062388   0.005179   0.005713  -0.056658   0.422101  -0.040152
     3  C   -0.006358   0.005712   0.005177   0.012328  -0.040151   0.422097
     4  C    0.308332  -0.000752  -0.007709   0.010029   0.007248  -0.052631
     5  C   -0.074736   0.004279   0.004267  -0.047670   0.008955   0.008957
     6  C    0.403839  -0.133418   0.321411  -0.045864   0.003073  -0.001203
     7  C    4.965125   0.321408  -0.133422   0.009155  -0.001202   0.003069
     8  C    0.321408   4.997963   0.331199   0.000006   0.000438  -0.000733
     9  C   -0.133422   0.331199   4.997991  -0.008904  -0.000733   0.000438
    10  H    0.009155   0.000006  -0.008904   0.626601  -0.002812  -0.000291
    11  H   -0.001202   0.000438  -0.000733  -0.002812   0.558682  -0.007585
    12  H    0.003069  -0.000733   0.000438  -0.000291  -0.007585   0.558687
    13  H   -0.045867  -0.008904   0.000006  -0.000309  -0.000291  -0.002811
    14  H    0.008912  -0.000079  -0.000079  -0.003327  -0.000181  -0.000181
    15  H    0.003611  -0.006787  -0.006792  -0.000680  -0.000230  -0.000231
    16  H   -0.032328   0.017843  -0.050536   0.002550   0.002074  -0.000149
    17  H    0.390101  -0.050529   0.017842  -0.000555  -0.000149   0.002075
    18  H   -0.027922   0.375326  -0.025376  -0.000142  -0.000007  -0.000009
    19  H   -0.018248   0.377720  -0.017418   0.000090  -0.000015   0.000037
    20  H    0.008551  -0.025389   0.375315   0.006495  -0.000009  -0.000007
    21  H    0.002992  -0.017415   0.377757  -0.000087   0.000037  -0.000015
              13         14         15         16         17         18
     1  C    0.010030  -0.024152  -0.044609  -0.048008  -0.000197  -0.001412
     2  C    0.012330   0.002187   0.008283  -0.005897   0.007127   0.000832
     3  C   -0.056659   0.002186   0.008281   0.007126  -0.005891  -0.001233
     4  C    0.425890  -0.024149  -0.044605  -0.000199  -0.048010  -0.007583
     5  C   -0.047669   0.387133   0.417715   0.014491   0.014492  -0.004391
     6  C    0.009156   0.008911   0.003615   0.390116  -0.032333   0.008544
     7  C   -0.045867   0.008912   0.003611  -0.032328   0.390101  -0.027922
     8  C   -0.008904  -0.000079  -0.006787   0.017843  -0.050529   0.375326
     9  C    0.000006  -0.000079  -0.006792  -0.050536   0.017842  -0.025376
    10  H   -0.000309  -0.003327  -0.000680   0.002550  -0.000555  -0.000142
    11  H   -0.000291  -0.000181  -0.000230   0.002074  -0.000149  -0.000007
    12  H   -0.002811  -0.000181  -0.000231  -0.000149   0.002075  -0.000009
    13  H    0.626607  -0.003326  -0.000680  -0.000555   0.002549   0.006494
    14  H   -0.003326   0.590062  -0.025511  -0.000418  -0.000418  -0.000377
    15  H   -0.000680  -0.025511   0.588809  -0.000533  -0.000533   0.002586
    16  H   -0.000555  -0.000418  -0.000533   0.672048  -0.013688  -0.001749
    17  H    0.002549  -0.000418  -0.000533  -0.013688   0.672052   0.007546
    18  H    0.006494  -0.000377   0.002586  -0.001749   0.007546   0.628982
    19  H   -0.000086   0.000015   0.000633  -0.000351  -0.012756  -0.027094
    20  H   -0.000142  -0.000377   0.002587   0.007546  -0.001749  -0.014248
    21  H    0.000090   0.000015   0.000633  -0.012751  -0.000351   0.005250
              19         20         21
     1  C   -0.000025  -0.007584   0.004719
     2  C   -0.000618  -0.001234   0.000080
     3  C    0.000080   0.000833  -0.000618
     4  C    0.004719  -0.001414  -0.000025
     5  C   -0.000168  -0.004394  -0.000168
     6  C    0.002992  -0.027919  -0.018263
     7  C   -0.018248   0.008551   0.002992
     8  C    0.377720  -0.025389  -0.017415
     9  C   -0.017418   0.375315   0.377757
    10  H    0.000090   0.006495  -0.000087
    11  H   -0.000015  -0.000009   0.000037
    12  H    0.000037  -0.000007  -0.000015
    13  H   -0.000086  -0.000142   0.000090
    14  H    0.000015  -0.000377   0.000015
    15  H    0.000633   0.002587   0.000633
    16  H   -0.000351   0.007546  -0.012751
    17  H   -0.012756  -0.001749  -0.000351
    18  H   -0.027094  -0.014248   0.005250
    19  H    0.616556   0.005252  -0.014694
    20  H    0.005252   0.629005  -0.027096
    21  H   -0.014694  -0.027096   0.616510
 Mulliken charges:
               1
     1  C   -0.005122
     2  C   -0.192091
     3  C   -0.192131
     4  C   -0.005126
     5  C   -0.174255
     6  C   -0.009343
     7  C   -0.009339
     8  C   -0.185351
     9  C   -0.185397
    10  H    0.074152
    11  H    0.103389
    12  H    0.103388
    13  H    0.074149
    14  H    0.083155
    15  H    0.094438
    16  H    0.053369
    17  H    0.053374
    18  H    0.075983
    19  H    0.083381
    20  H    0.075977
    21  H    0.083401
 Sum of Mulliken charges =  -0.00000
 Mulliken charges with hydrogens summed into heavy atoms:
               1
     1  C    0.069029
     2  C   -0.088702
     3  C   -0.088743
     4  C    0.069023
     5  C    0.003338
     6  C    0.044026
     7  C    0.044035
     8  C   -0.025987
     9  C   -0.026019
 APT charges:
               1
     1  C   -0.405389
     2  C   -0.586711
     3  C   -0.586629
     4  C   -0.405457
     5  C   -0.661262
     6  C   -0.312915
     7  C   -0.312901
     8  C   -0.784657
     9  C   -0.784682
    10  H    0.394337
    11  H    0.562230
    12  H    0.562268
    13  H    0.394334
    14  H    0.423721
    15  H    0.288046
    16  H    0.344933
    17  H    0.344933
    18  H    0.280620
    19  H    0.482278
    20  H    0.280581
    21  H    0.482322
 Sum of APT charges =  -0.00000
 APT charges with hydrogens summed into heavy atoms:
               1
     1  C   -0.011052
     2  C   -0.024482
     3  C   -0.024360
     4  C   -0.011123
     5  C    0.050505
     6  C    0.032018
     7  C    0.032032
     8  C   -0.021758
     9  C   -0.021779
 Electronic spatial extent (au):  <R**2>=            944.8615
 Charge=             -0.0000 electrons
 Dipole moment (field-independent basis, Debye):
    X=             -0.2630    Y=              0.0001    Z=             -0.1371  Tot=              0.2966
 Quadrupole moment (field-independent basis, Debye-Ang):
   XX=            -56.8426   YY=            -54.5300   ZZ=            -55.5616
   XY=             -0.0002   XZ=             -0.3694   YZ=             -0.0003
 Traceless Quadrupole moment (field-independent basis, Debye-Ang):
   XX=             -1.1979   YY=              1.1147   ZZ=              0.0832
   XY=             -0.0002   XZ=             -0.3694   YZ=             -0.0003
 Octapole moment (field-independent basis, Debye-Ang**2):
  XXX=             -1.3455  YYY=              0.0007  ZZZ=              0.8604  XYY=              3.6273
  XXY=              0.0000  XXZ=             -5.2306  XZZ=             -1.9217  YZZ=              0.0003
  YYZ=             -1.1233  XYZ=              0.0003
 Hexadecapole moment (field-independent basis, Debye-Ang**3):
 XXXX=           -763.9323 YYYY=           -335.9815 ZZZZ=           -252.2285 XXXY=             -0.0068
 XXXZ=             -4.6814 YYYX=             -0.0008 YYYZ=             -0.0014 ZZZX=              2.7397
 ZZZY=             -0.0006 XXYY=           -176.3264 XXZZ=           -161.0500 YYZZ=            -95.4993
 XXYZ=             -0.0017 YYXZ=             -2.7140 ZZXY=              0.0013
 N-N= 4.671796128951D+02 E-N=-1.746194214180D+03  KE= 3.486778445472D+02
  Exact polarizability:       0.000       0.000       0.000       0.000       0.000       0.000
 Approx polarizability:     137.109      -0.002     151.045      -3.066      -0.001     126.021
   1 Symmetry operations used in ECPInt.
 ECPInt:  NShTT=   10878 NPrTT=   32112 LenC2=   10768 LenP2D=   26152.
 LDataN:  DoStor=T MaxTD1= 8 Len=  415
 Calling FoFJK, ICntrl=    100127 FMM=F ISym2X=0 I1Cent= 0 IOpClX= 0 NMat=1 NMatS=1 NMatT=0.
 ***** Axes restored to original set *****
 -------------------------------------------------------------------
 Center     Atomic                   Forces (Hartrees/Bohr)
 Number     Number              X              Y              Z
 -------------------------------------------------------------------
      1        6          -0.004372689   -0.010849708    0.002529515
      2        6          -0.005119139   -0.005964139    0.001376763
      3        6          -0.005090581    0.005969724    0.001355890
      4        6          -0.004392492    0.010852681    0.002541979
      5        6          -0.001182882    0.000000508    0.007100937
      6        6           0.003042922   -0.014995770   -0.007461615
      7        6           0.003030247    0.014994717   -0.007459747
      8        6           0.006615811    0.005544038    0.000925261
      9        6           0.006577319   -0.005537534    0.001004879
     10        1          -0.000001486   -0.000910579    0.000434634
     11        1          -0.002915258   -0.001708008   -0.003869717
     12        1          -0.002905808    0.001700488   -0.003867517
     13        1           0.000000604    0.000910422    0.000436795
     14        1           0.000246028   -0.000000126    0.000616833
     15        1           0.002063290   -0.000000576    0.001891027
     16        1          -0.000195998    0.000287979   -0.000166986
     17        1          -0.000196132   -0.000287961   -0.000166508
     18        1           0.001052747    0.001587734    0.001265466
     19        1           0.001330425    0.001021517    0.000152092
     20        1           0.001050401   -0.001582360    0.001242735
     21        1           0.001362671   -0.001033046    0.000117282
 -------------------------------------------------------------------
 Cartesian Forces:  Max     0.014995770 RMS     0.004498471
 FormGI is forming the generalized inverse of G from B-inverse, IUseBI=4.

 GradGradGradGradGradGradGradGradGradGradGradGradGradGradGradGradGradGrad
 Berny optimization.
 Internal  Forces:  Max     0.013914175 RMS     0.002886756
 Search for a saddle point.
 Step number   1 out of a maximum of  126
 All quantities printed in internal units (Hartrees-Bohrs-Radians)
 Swapping is turned off.
 Second derivative matrix not updated -- analytic derivatives used.
 ITU=  0
     Eigenvalues ---    0.00380   0.01013   0.01213   0.01227   0.01471
     Eigenvalues ---    0.01631   0.01981   0.02550   0.02661   0.03263
     Eigenvalues ---    0.03505   0.03860   0.03915   0.04071   0.04227
     Eigenvalues ---    0.04352   0.04477   0.04523   0.04614   0.04919
     Eigenvalues ---    0.04991   0.05082   0.06181   0.06588   0.06768
     Eigenvalues ---    0.07725   0.08274   0.08641   0.09620   0.10092
     Eigenvalues ---    0.10196   0.11774   0.12221   0.16690   0.17452
     Eigenvalues ---    0.19539   0.20420   0.21427   0.22181   0.22909
     Eigenvalues ---    0.25107   0.26578   0.27950   0.31516   0.33266
     Eigenvalues ---    0.33438   0.33483   0.33645   0.33883   0.34064
     Eigenvalues ---    0.34188   0.34203   0.34436   0.34859   0.37397
     Eigenvalues ---    0.37516   0.52771
 Eigenvectors required to have negative eigenvalues:
                          D84       D85       D87       D88       D78
   1                    0.24765   0.24652   0.24650   0.24537  -0.18390
                          D69       D70       D79       D83       D81
   1                   -0.18389  -0.18350  -0.18348   0.18118   0.18117
 RFO step:  Lambda0=3.795054750D-03 Lambda=-4.40230624D-03.
 Linear search not attempted -- option 19 set.
 Iteration  1 RMS(Cart)=  0.02270706 RMS(Int)=  0.00025254
 Iteration  2 RMS(Cart)=  0.00026634 RMS(Int)=  0.00008902
 Iteration  3 RMS(Cart)=  0.00000004 RMS(Int)=  0.00008902
 Variable       Old X    -DE/DX   Delta X   Delta X   Delta X     New X
                                 (Linear)    (Quad)   (Total)
    R1        2.85376   0.00856   0.00000   0.02035   0.02035   2.87411
    R2        2.89272   0.00911   0.00000   0.02713   0.02711   2.91983
    R3        2.90067   0.01247   0.00000   0.03990   0.03986   2.94054
    R4        2.05650   0.00100   0.00000   0.00171   0.00171   2.05821
    R5        2.50767   0.01042   0.00000   0.01563   0.01568   2.52334
    R6        2.03092   0.00471   0.00000   0.01242   0.01242   2.04334
    R7        2.85381   0.00855   0.00000   0.02065   0.02067   2.87448
    R8        2.03095   0.00470   0.00000   0.01241   0.01241   2.04335
    R9        2.89272   0.00910   0.00000   0.02560   0.02562   2.91833
   R10        2.90067   0.01247   0.00000   0.04069   0.04071   2.94138
   R11        2.05650   0.00100   0.00000   0.00168   0.00168   2.05818
   R12        2.05880   0.00018   0.00000   0.00035   0.00035   2.05915
   R13        2.05243   0.00276   0.00000   0.00755   0.00755   2.05997
   R14        2.89808   0.01391   0.00000   0.05633   0.05625   2.95434
   R15        2.91005   0.00918   0.00000   0.02897   0.02898   2.93903
   R16        2.05952   0.00003   0.00000  -0.00133  -0.00133   2.05820
   R17        2.91005   0.00918   0.00000   0.02736   0.02735   2.93741
   R18        2.05952   0.00003   0.00000  -0.00115  -0.00115   2.05837
   R19        2.90489   0.01000   0.00000   0.02720   0.02724   2.93213
   R20        2.05651   0.00189   0.00000   0.00566   0.00566   2.06217
   R21        2.05645   0.00125   0.00000   0.00340   0.00340   2.05986
   R22        2.05659   0.00187   0.00000   0.00490   0.00490   2.06149
   R23        2.05630   0.00130   0.00000   0.00319   0.00319   2.05950
    A1        1.74470  -0.00119   0.00000  -0.00436  -0.00430   1.74039
    A2        1.81231   0.00173   0.00000   0.01208   0.01209   1.82440
    A3        2.03097  -0.00009   0.00000   0.00276   0.00270   2.03367
    A4        1.78213  -0.00059   0.00000  -0.00888  -0.00893   1.77319
    A5        2.04864   0.00078   0.00000  -0.00054  -0.00052   2.04812
    A6        2.00553  -0.00063   0.00000  -0.00125  -0.00130   2.00423
    A7        1.87396   0.00021   0.00000   0.00465   0.00461   1.87856
    A8        2.16721   0.00135   0.00000   0.01187   0.01162   2.17884
    A9        2.23938  -0.00159   0.00000  -0.01878  -0.01896   2.22042
   A10        1.87390   0.00022   0.00000   0.00428   0.00422   1.87812
   A11        2.23940  -0.00159   0.00000  -0.01866  -0.01886   2.22054
   A12        2.16724   0.00134   0.00000   0.01193   0.01164   2.17888
   A13        1.74465  -0.00119   0.00000  -0.00433  -0.00429   1.74036
   A14        1.81240   0.00173   0.00000   0.00719   0.00718   1.81958
   A15        2.03094  -0.00008   0.00000   0.00320   0.00317   2.03411
   A16        1.78213  -0.00059   0.00000  -0.00389  -0.00391   1.77821
   A17        2.04864   0.00079   0.00000  -0.00099  -0.00098   2.04766
   A18        2.00553  -0.00063   0.00000  -0.00136  -0.00138   2.00415
   A19        1.63062   0.00173   0.00000   0.00696   0.00687   1.63750
   A20        1.95913  -0.00046   0.00000   0.00014   0.00019   1.95932
   A21        1.99843  -0.00036   0.00000  -0.00101  -0.00101   1.99742
   A22        1.95913  -0.00046   0.00000   0.00029   0.00032   1.95946
   A23        1.99843  -0.00036   0.00000  -0.00321  -0.00321   1.99522
   A24        1.90694   0.00003   0.00000  -0.00209  -0.00211   1.90483
   A25        1.79916  -0.00051   0.00000  -0.00283  -0.00278   1.79639
   A26        2.04610   0.00192   0.00000   0.00808   0.00811   2.05421
   A27        1.95243  -0.00053   0.00000   0.00439   0.00431   1.95674
   A28        1.57197  -0.00068   0.00000  -0.00480  -0.00486   1.56710
   A29        2.05621   0.00029   0.00000  -0.00906  -0.00905   2.04716
   A30        2.00224  -0.00043   0.00000   0.00085   0.00075   2.00299
   A31        1.79916  -0.00051   0.00000  -0.00510  -0.00506   1.79410
   A32        2.04610   0.00192   0.00000   0.01808   0.01803   2.06413
   A33        1.95243  -0.00053   0.00000  -0.00558  -0.00571   1.94671
   A34        1.57197  -0.00068   0.00000  -0.00523  -0.00523   1.56674
   A35        2.05621   0.00029   0.00000  -0.00478  -0.00480   2.05142
   A36        2.00224  -0.00044   0.00000   0.00179   0.00177   2.00401
   A37        1.56963   0.00068   0.00000   0.00578   0.00559   1.57522
   A38        2.00225  -0.00001   0.00000   0.01177   0.01166   2.01391
   A39        1.98141   0.00010   0.00000  -0.00875  -0.00862   1.97279
   A40        2.01666  -0.00006   0.00000   0.00794   0.00789   2.02455
   A41        1.98614   0.00006   0.00000  -0.00639  -0.00636   1.97977
   A42        1.89450  -0.00055   0.00000  -0.00802  -0.00800   1.88650
   A43        1.56963   0.00068   0.00000   0.00425   0.00411   1.57374
   A44        2.00218  -0.00001   0.00000  -0.00471  -0.00459   1.99759
   A45        1.98152   0.00010   0.00000   0.00917   0.00907   1.99058
   A46        2.01654  -0.00005   0.00000  -0.00401  -0.00401   2.01253
   A47        1.98627   0.00005   0.00000   0.00723   0.00724   1.99351
   A48        1.89446  -0.00055   0.00000  -0.00896  -0.00895   1.88550
    D1        0.59276  -0.00032   0.00000  -0.00556  -0.00552   0.58724
    D2       -2.62121  -0.00085   0.00000  -0.03748  -0.03765  -2.65886
    D3       -1.24376   0.00024   0.00000   0.00215   0.00229  -1.24147
    D4        1.82545  -0.00030   0.00000  -0.02976  -0.02984   1.79561
    D5        2.81734  -0.00028   0.00000  -0.00790  -0.00783   2.80951
    D6       -0.39663  -0.00081   0.00000  -0.03981  -0.03996  -0.43659
    D7       -0.89110  -0.00046   0.00000   0.00566   0.00562  -0.88548
    D8        1.12901  -0.00026   0.00000   0.00939   0.00936   1.13838
    D9       -2.96697  -0.00090   0.00000   0.00581   0.00580  -2.96117
   D10        0.96980   0.00088   0.00000   0.01498   0.01496   0.98475
   D11        2.98991   0.00109   0.00000   0.01870   0.01871   3.00861
   D12       -1.10608   0.00045   0.00000   0.01512   0.01514  -1.09093
   D13       -3.10385   0.00010   0.00000   0.00586   0.00582  -3.09803
   D14       -1.08373   0.00030   0.00000   0.00958   0.00956  -1.07417
   D15        1.10347  -0.00034   0.00000   0.00600   0.00600   1.10947
   D16        1.18868  -0.00066   0.00000  -0.01453  -0.01453   1.17415
   D17        2.88074  -0.00115   0.00000  -0.01926  -0.01933   2.86141
   D18       -1.03744  -0.00034   0.00000  -0.00405  -0.00405  -1.04149
   D19       -0.61943   0.00031   0.00000  -0.01055  -0.01050  -0.62993
   D20        1.07263  -0.00019   0.00000  -0.01529  -0.01531   1.05732
   D21       -2.84555   0.00062   0.00000  -0.00008  -0.00003  -2.84558
   D22       -2.85666   0.00016   0.00000  -0.00233  -0.00231  -2.85897
   D23       -1.16460  -0.00033   0.00000  -0.00706  -0.00711  -1.17171
   D24        1.20040   0.00048   0.00000   0.00815   0.00817   1.20857
   D25        0.00016  -0.00001   0.00000   0.00113   0.00115   0.00131
   D26        3.06527  -0.00039   0.00000  -0.03336  -0.03284   3.03244
   D27       -3.06511   0.00039   0.00000   0.03303   0.03257  -3.03255
   D28       -0.00000   0.00000   0.00000  -0.00146  -0.00142  -0.00142
   D29       -0.59302   0.00033   0.00000   0.00335   0.00329  -0.58974
   D30        1.24351  -0.00023   0.00000  -0.00030  -0.00040   1.24311
   D31       -2.81754   0.00029   0.00000   0.00596   0.00588  -2.81166
   D32        2.62110   0.00085   0.00000   0.03771   0.03791   2.65901
   D33       -1.82555   0.00030   0.00000   0.03406   0.03423  -1.79132
   D34        0.39658   0.00081   0.00000   0.04032   0.04051   0.43709
   D35        0.89118   0.00046   0.00000  -0.00501  -0.00496   0.88622
   D36       -1.12893   0.00026   0.00000  -0.00861  -0.00859  -1.13752
   D37        2.96705   0.00090   0.00000  -0.00334  -0.00334   2.96371
   D38       -0.96980  -0.00088   0.00000  -0.01042  -0.01037  -0.98016
   D39       -2.98991  -0.00109   0.00000  -0.01401  -0.01400  -3.00391
   D40        1.10608  -0.00045   0.00000  -0.00875  -0.00876   1.09732
   D41        3.10385  -0.00009   0.00000  -0.00488  -0.00482   3.09903
   D42        1.08373  -0.00030   0.00000  -0.00848  -0.00845   1.07528
   D43       -1.10347   0.00034   0.00000  -0.00321  -0.00321  -1.10667
   D44       -1.18866   0.00066   0.00000  -0.00093  -0.00099  -1.18964
   D45       -2.88072   0.00115   0.00000   0.00258   0.00263  -2.87809
   D46        1.03747   0.00034   0.00000  -0.01367  -0.01366   1.02381
   D47        0.61943  -0.00031   0.00000  -0.00472  -0.00477   0.61466
   D48       -1.07263   0.00019   0.00000  -0.00122  -0.00116  -1.07379
   D49        2.84555  -0.00062   0.00000  -0.01747  -0.01744   2.82811
   D50        2.85666  -0.00016   0.00000  -0.00980  -0.00984   2.84682
   D51        1.16460   0.00033   0.00000  -0.00630  -0.00623   1.15837
   D52       -1.20040  -0.00048   0.00000  -0.02255  -0.02251  -1.22291
   D53       -0.00000   0.00000   0.00000   0.00960   0.00960   0.00960
   D54        2.06017   0.00174   0.00000   0.02628   0.02626   2.08643
   D55       -2.15905   0.00091   0.00000   0.02387   0.02387  -2.13518
   D56       -2.06017  -0.00174   0.00000   0.00287   0.00283  -2.05734
   D57        0.00000   0.00000   0.00000   0.01955   0.01949   0.01949
   D58        2.06396  -0.00083   0.00000   0.01714   0.01710   2.08107
   D59        2.15905  -0.00091   0.00000   0.00733   0.00734   2.16639
   D60       -2.06396   0.00083   0.00000   0.02401   0.02400  -2.03997
   D61       -0.00000  -0.00000   0.00000   0.02160   0.02161   0.02161
   D62       -1.82886   0.00067   0.00000  -0.01493  -0.01485  -1.84371
   D63        0.23585   0.00096   0.00000  -0.01840  -0.01837   0.21748
   D64        2.42823   0.00026   0.00000  -0.02697  -0.02694   2.40129
   D65       -0.00000  -0.00000   0.00000  -0.01959  -0.01952  -0.01952
   D66        2.06471   0.00029   0.00000  -0.02305  -0.02304   2.04167
   D67       -2.02609  -0.00041   0.00000  -0.03163  -0.03162  -2.05770
   D68        2.11085  -0.00016   0.00000  -0.03221  -0.03218   2.07868
   D69       -2.10762   0.00013   0.00000  -0.03568  -0.03569  -2.14332
   D70        0.08476  -0.00057   0.00000  -0.04425  -0.04427   0.04049
   D71        1.82886  -0.00067   0.00000  -0.02567  -0.02569   1.80318
   D72       -0.23600  -0.00096   0.00000  -0.04056  -0.04062  -0.27662
   D73       -2.42840  -0.00026   0.00000  -0.03183  -0.03188  -2.46028
   D74       -0.00000  -0.00000   0.00000  -0.01959  -0.01953  -0.01953
   D75       -2.06486  -0.00029   0.00000  -0.03447  -0.03447  -2.09933
   D76        2.02592   0.00041   0.00000  -0.02574  -0.02572   2.00020
   D77       -2.11085   0.00016   0.00000  -0.01184  -0.01177  -2.12262
   D78        2.10747  -0.00013   0.00000  -0.02673  -0.02671   2.08076
   D79       -0.08493   0.00057   0.00000  -0.01800  -0.01796  -0.10290
   D80        0.00000   0.00000   0.00000   0.01951   0.01963   0.01963
   D81       -2.05201  -0.00033   0.00000   0.02356   0.02363  -2.02837
   D82        2.02181   0.00045   0.00000   0.03333   0.03340   2.05521
   D83        2.05212   0.00034   0.00000   0.03797   0.03804   2.09016
   D84        0.00011   0.00000   0.00000   0.04202   0.04204   0.04215
   D85       -2.20925   0.00078   0.00000   0.05179   0.05181  -2.15745
   D86       -2.02166  -0.00045   0.00000   0.02777   0.02784  -1.99382
   D87        2.20952  -0.00079   0.00000   0.03183   0.03184   2.24136
   D88        0.00015  -0.00000   0.00000   0.04160   0.04161   0.04176
         Item               Value     Threshold  Converged?
 Maximum Force            0.013914     0.000450     NO 
 RMS     Force            0.002887     0.000300     NO 
 Maximum Displacement     0.116669     0.001800     NO 
 RMS     Displacement     0.022686     0.001200     NO 
 Predicted change in Energy=-2.209680D-03
 GradGradGradGradGradGradGradGradGradGradGradGradGradGradGradGradGradGrad

                          Input orientation:                          
 ---------------------------------------------------------------------
 Center     Atomic      Atomic             Coordinates (Angstroms)
 Number     Number       Type             X           Y           Z
 ---------------------------------------------------------------------
      1          6           0       -0.622462   -1.132245    0.316125
      2          6           0       -1.846594   -0.665210   -0.456249
      3          6           0       -1.846154    0.670046   -0.446067
      4          6           0       -0.620372    1.123877    0.331930
      5          6           0       -0.539473   -0.011088    1.376066
      6          6           0        0.579566   -0.779602   -0.606973
      7          6           0        0.575498    0.783757   -0.604521
      8          6           0        2.006992    0.780225    0.001286
      9          6           0        1.999740   -0.771159    0.026982
     10          1           0       -0.637127   -2.160348    0.675362
     11          1           0       -2.520316   -1.314931   -0.997678
     12          1           0       -2.518623    1.328508   -0.978432
     13          1           0       -0.632185    2.146893    0.705465
     14          1           0       -1.396504   -0.014957    2.048993
     15          1           0        0.377618   -0.014416    1.965328
     16          1           0        0.514306   -1.277694   -1.573356
     17          1           0        0.486963    1.288626   -1.565626
     18          1           0        2.106639    1.274205    0.969217
     19          1           0        2.755686    1.199127   -0.671129
     20          1           0        2.054066   -1.221413    1.019135
     21          1           0        2.766635   -1.232203   -0.595159
 ---------------------------------------------------------------------
                    Distance matrix (angstroms):
                    1          2          3          4          5
     1  C    0.000000
     2  C    1.520915   0.000000
     3  C    2.307945   1.335295   0.000000
     4  C    2.256179   2.307743   1.521112   0.000000
     5  C    1.545107   2.343890   2.343401   1.544316   0.000000
     6  C    1.556064   2.433527   2.830457   2.438160   2.403187
     7  C    2.440033   2.826309   2.429493   1.556512   2.407835
     8  C    3.266603   4.141105   3.880593   2.670294   3.000114
     9  C    2.662692   3.878018   4.134217   3.247945   2.974112
    10  H    1.089157   2.231321   3.275741   3.302175   2.262707
    11  H    2.315449   1.081288   2.167695   3.365327   3.355355
    12  H    3.365503   2.167766   1.081296   2.315659   3.354879
    13  H    3.302184   3.276017   2.231775   1.089141   2.261677
    14  H    2.202341   2.627099   2.626164   2.201734   1.089655
    15  H    2.229254   3.351819   3.350892   2.227036   1.090090
    16  H    2.209872   2.682706   3.261325   3.268815   3.378437
    17  H    3.260739   3.239395   2.660731   2.203191   3.375852
    18  H    3.696690   4.628318   4.241769   2.804518   2.969749
    19  H    4.221593   4.970202   4.637619   3.522721   4.063706
    20  H    2.768750   4.207288   4.575604   3.622880   2.884222
    21  H    3.510898   4.650017   4.991854   4.228762   4.038218
                    6          7          8          9         10
     6  C    0.000000
     7  C    1.563367   0.000000
     8  C    2.200134   1.554410   0.000000
     9  C    1.555270   2.201142   1.551614   0.000000
    10  H    2.243030   3.431664   4.011573   3.050133   0.000000
    11  H    3.169936   3.760735   5.087645   4.666532   2.657102
    12  H    3.765752   3.163883   4.662795   5.082821   4.295018
    13  H    3.428587   2.243368   3.054326   3.987781   4.307348
    14  H    3.397601   3.401158   4.050828   4.024282   2.658236
    15  H    2.691287   2.698215   2.672785   2.638395   2.701619
    16  H    1.089151   2.278589   2.990425   2.241467   2.676118
    17  H    2.281481   1.089244   2.241467   3.011246   4.263921
    18  H    3.005736   2.249796   1.091254   2.254495   4.405764
    19  H    2.941936   2.220403   1.090029   2.222800   4.960876
    20  H    2.239102   2.973740   2.246061   1.090894   2.870941
    21  H    2.233441   2.977459   2.232190   1.089839   3.749837
                   11         12         13         14         15
    11  H    0.000000
    12  H    2.643510   0.000000
    13  H    4.295340   2.657801   0.000000
    14  H    3.497869   3.497049   2.657602   0.000000
    15  H    4.343819   4.342509   2.697817   1.776094   0.000000
    16  H    3.088967   4.042881   4.270276   4.285687   3.759899
    17  H    4.018059   3.062668   2.673381   4.279281   3.765304
    18  H    5.655175   5.018898   2.886573   3.885854   2.375352
    19  H    5.853488   5.284839   3.777690   5.110161   3.752173
    20  H    5.000125   5.603737   4.319702   3.797707   2.272136
    21  H    5.302897   5.885414   4.966074   5.079858   3.707628
                   16         17         18         19         20
    16  H    0.000000
    17  H    2.566477   0.000000
    18  H    3.938577   3.008153   0.000000
    19  H    3.460122   2.440336   1.765682   0.000000
    20  H    3.015799   3.929007   2.496671   3.034514   0.000000
    21  H    2.455998   3.534584   3.027367   2.432541   1.764601
                   21
    21  H    0.000000
 Stoichiometry    C9H12
 Framework group  C1[X(C9H12)]
 Deg. of freedom    57
 Full point group                 C1      NOp   1
 Largest Abelian subgroup         C1      NOp   1
 Largest concise Abelian subgroup C1      NOp   1
                         Standard orientation:                         
 ---------------------------------------------------------------------
 Center     Atomic      Atomic             Coordinates (Angstroms)
 Number     Number       Type             X           Y           Z
 ---------------------------------------------------------------------
      1          6           0        0.646835    1.133266    0.298060
      2          6           0        1.872070    0.656044   -0.466297
      3          6           0        1.868170   -0.679057   -0.443857
      4          6           0        0.638904   -1.122603    0.334574
      5          6           0        0.557796    0.022111    1.367996
      6          6           0       -0.553326    0.775211   -0.625382
      7          6           0       -0.553282   -0.788066   -0.608563
      8          6           0       -1.986568   -0.775329   -0.007134
      9          6           0       -1.975409    0.776202    0.004338
     10          1           0        0.663066    2.164586    0.647885
     11          1           0        2.549076    1.299048   -1.011635
     12          1           0        2.540536   -1.344090   -0.968123
     13          1           0        0.646971   -2.142169    0.717520
     14          1           0        1.412816    0.029986    2.043441
     15          1           0       -0.361043    0.033185    1.954434
     16          1           0       -0.483895    1.264233   -1.596097
     17          1           0       -0.463168   -1.301968   -1.564720
     18          1           0       -2.090379   -1.260138    0.964987
     19          1           0       -2.734320   -1.198488   -0.677929
     20          1           0       -2.031547    1.235692    0.992147
     21          1           0       -2.739251    1.233457   -0.624320
 ---------------------------------------------------------------------
 Rotational constants (GHZ):           3.3597941           1.7016939           1.5227877
 Standard basis: def2TZVP (5D, 7F)
 There are   396 symmetry adapted cartesian basis functions of A   symmetry.
 There are   351 symmetry adapted basis functions of A   symmetry.
   351 basis functions,   555 primitive gaussians,   396 cartesian basis functions
    33 alpha electrons       33 beta electrons
       nuclear repulsion energy       462.5898078785 Hartrees.
 NAtoms=   21 NActive=   21 NUniq=   21 SFac= 1.00D+00 NAtFMM=   60 NAOKFM=F Big=F
 Integral buffers will be    131072 words long.
 Raffenetti 2 integral format.
 Two-electron integral symmetry is turned on.
 One-electron integrals computed using PRISM.
   1 Symmetry operations used in ECPInt.
 ECPInt:  NShTT=   10878 NPrTT=   32112 LenC2=   10764 LenP2D=   26073.
 LDataN:  DoStor=T MaxTD1= 6 Len=  172
 NBasis=   351 RedAO= T EigKep=  2.52D-05  NBF=   351
 NBsUse=   351 1.00D-06 EigRej= -1.00D+00 NBFU=   351
 Initial guess from the checkpoint file:  "/tmp/Gau-984837.chk"
 B after Tr=    -0.000000   -0.000000   -0.000000
         Rot=    0.999985    0.005366   -0.000433    0.001069 Ang=   0.63 deg.
 ExpMin= 9.52D-02 ExpMax= 1.36D+04 ExpMxC= 4.63D+02 IAcc=3 IRadAn=         5 AccDes= 0.00D+00
 Harris functional with IExCor=  402 and IRadAn=       5 diagonalized for initial guess.
 HarFok:  IExCor=  402 AccDes= 0.00D+00 IRadAn=         5 IDoV= 1 UseB2=F ITyADJ=14
 ICtDFT=  3500011 ScaDFX=  1.000000  1.000000  1.000000  1.000000
 FoFCou: FMM=F IPFlag=           0 FMFlag=      100000 FMFlg1=           0
         NFxFlg=           0 DoJE=T BraDBF=F KetDBF=T FulRan=T
         wScrn=  0.000000 ICntrl=       500 IOpCl=  0 I1Cent=   200000004 NGrid=           0
         NMat0=    1 NMatS0=      1 NMatT0=    0 NMatD0=    1 NMtDS0=    0 NMtDT0=    0
 Petite list used in FoFCou.
 Requested convergence on RMS density matrix=1.00D-08 within 128 cycles.
 Requested convergence on MAX density matrix=1.00D-06.
 Requested convergence on             energy=1.00D-06.
 No special actions if energy rises.
 Integral accuracy reduced to 1.0D-05 until final iterations.
 Initial convergence to 1.0D-05 achieved.  Increase integral accuracy.
 SCF Done:  E(RB3LYP) =  -350.239906928     A.U. after   11 cycles
            NFock= 11  Conv=0.48D-08     -V/T= 2.0055
   1 Symmetry operations used in ECPInt.
 ECPInt:  NShTT=   10878 NPrTT=   32112 LenC2=   10764 LenP2D=   26073.
 LDataN:  DoStor=T MaxTD1= 7 Len=  274
 Calling FoFJK, ICntrl=      2127 FMM=F ISym2X=0 I1Cent= 0 IOpClX= 0 NMat=1 NMatS=1 NMatT=0.
 ***** Axes restored to original set *****
 -------------------------------------------------------------------
 Center     Atomic                   Forces (Hartrees/Bohr)
 Number     Number              X              Y              Z
 -------------------------------------------------------------------
      1        6          -0.000415234   -0.000483814    0.000033881
      2        6          -0.000501508   -0.000248483    0.000473921
      3        6          -0.000461152    0.000202930    0.000471098
      4        6          -0.000477892    0.000662822   -0.000066466
      5        6          -0.000067493    0.000048493    0.000321151
      6        6           0.000522731   -0.001578887   -0.000325546
      7        6           0.000282748    0.001684113   -0.000404101
      8        6           0.000483614    0.000104344   -0.000229695
      9        6           0.000214759   -0.000168726    0.000351091
     10        1          -0.000032813    0.000046504    0.000178704
     11        1           0.000092560    0.000017628   -0.000432387
     12        1           0.000079969   -0.000014757   -0.000424163
     13        1          -0.000085521   -0.000025943    0.000114244
     14        1           0.000080637    0.000010401    0.000107767
     15        1           0.000052671   -0.000032868   -0.000027565
     16        1          -0.000220989    0.000009323   -0.000012660
     17        1           0.000161012   -0.000239288   -0.000156085
     18        1          -0.000152653   -0.000091541    0.000063062
     19        1           0.000162254    0.000221620    0.000271735
     20        1           0.000347525   -0.000235022   -0.000081217
     21        1          -0.000065227    0.000111149   -0.000226767
 -------------------------------------------------------------------
 Cartesian Forces:  Max     0.001684113 RMS     0.000392470

 GradGradGradGradGradGradGradGradGradGradGradGradGradGradGradGradGradGrad
 Berny optimization.
 FormGI is forming the generalized inverse of G from B-inverse, IUseBI=4.
 Internal  Forces:  Max     0.001081219 RMS     0.000187692
 Search for a saddle point.
 Step number   2 out of a maximum of  126
 All quantities printed in internal units (Hartrees-Bohrs-Radians)
 Swapping is turned off.
 Update second derivatives using D2CorX and points    1    2
 ITU=  0  0
     Eigenvalues ---    0.00478   0.01064   0.01213   0.01227   0.01473
     Eigenvalues ---    0.01632   0.01981   0.02550   0.02658   0.03262
     Eigenvalues ---    0.03504   0.03859   0.03915   0.04070   0.04226
     Eigenvalues ---    0.04352   0.04476   0.04523   0.04613   0.04919
     Eigenvalues ---    0.04991   0.05081   0.06181   0.06587   0.06767
     Eigenvalues ---    0.07715   0.08273   0.08639   0.09609   0.10090
     Eigenvalues ---    0.10182   0.11772   0.12213   0.16627   0.17450
     Eigenvalues ---    0.19538   0.20419   0.21407   0.22178   0.22907
     Eigenvalues ---    0.25107   0.26530   0.27784   0.31167   0.33266
     Eigenvalues ---    0.33438   0.33474   0.33644   0.33880   0.34064
     Eigenvalues ---    0.34177   0.34203   0.34415   0.34858   0.37393
     Eigenvalues ---    0.37516   0.52701
 Eigenvectors required to have negative eigenvalues:
                          D84       D87       D85       D88       D78
   1                    0.24675   0.24609   0.24454   0.24388  -0.18593
                          D79       D83       D86       D81       D69
   1                   -0.18589   0.18130   0.18065   0.18032  -0.17888
 RFO step:  Lambda0=4.861159501D-03 Lambda=-4.12779935D-05.
 Linear search not attempted -- option 19 set.
 Iteration  1 RMS(Cart)=  0.00507409 RMS(Int)=  0.00002020
 Iteration  2 RMS(Cart)=  0.00002189 RMS(Int)=  0.00000553
 Iteration  3 RMS(Cart)=  0.00000000 RMS(Int)=  0.00000553
 Variable       Old X    -DE/DX   Delta X   Delta X   Delta X     New X
                                 (Linear)    (Quad)   (Total)
    R1        2.87411   0.00037   0.00000   0.00048   0.00048   2.87459
    R2        2.91983   0.00047   0.00000   0.00121   0.00121   2.92104
    R3        2.94054   0.00085   0.00000   0.00327   0.00326   2.94380
    R4        2.05821   0.00002   0.00000  -0.00000  -0.00000   2.05821
    R5        2.52334   0.00042   0.00000   0.00068   0.00069   2.52403
    R6        2.04334   0.00015   0.00000   0.00049   0.00049   2.04383
    R7        2.87448   0.00035   0.00000   0.00054   0.00055   2.87503
    R8        2.04335   0.00015   0.00000   0.00049   0.00049   2.04385
    R9        2.91833   0.00049   0.00000   0.00081   0.00081   2.91915
   R10        2.94138   0.00087   0.00000   0.00357   0.00357   2.94495
   R11        2.05818   0.00002   0.00000  -0.00001  -0.00001   2.05816
   R12        2.05915   0.00000   0.00000   0.00004   0.00004   2.05919
   R13        2.05997   0.00003   0.00000   0.00006   0.00006   2.06003
   R14        2.95434   0.00108   0.00000   0.00669   0.00667   2.96101
   R15        2.93903   0.00048   0.00000   0.00175   0.00175   2.94079
   R16        2.05820   0.00002   0.00000  -0.00006  -0.00006   2.05813
   R17        2.93741   0.00049   0.00000   0.00140   0.00140   2.93881
   R18        2.05837   0.00001   0.00000  -0.00005  -0.00005   2.05833
   R19        2.93213   0.00055   0.00000   0.00097   0.00097   2.93310
   R20        2.06217   0.00000   0.00000   0.00014   0.00014   2.06231
[...]
 ,0.30675649,-0.00079707,0.08291296,-0.07753922,0.00353018,0.01362041,-
 0.00421240,-0.00316061,0.00100232,-0.00158360,-0.00030665,-0.00450372,
 -0.00388675,0.00025721,-0.02009726,0.01161661,-0.00078554,0.01772861,-
 0.00523919,0.00220463,-0.00041561,-0.00272615,-0.00012650,-0.00013402,
 0.00022474,-0.00016145,-0.00054756,0.00061120,-0.00104232,-0.09084371,
 0.07870696,-0.00440478,-0.01372576,-0.00732977,-0.15896674,-0.10413413
 ,-0.09996143,0.00485616,0.00213264,-0.00057538,0.00465558,0.00010300,-
 0.00534273,-0.00295984,0.00141944,-0.00064242,0.00019234,-0.00012440,-
 0.00089426,0.00127393,0.00092996,0.00097411,0.00023850,0.00007557,-0.0
 0038113,-0.00054319,0.00007160,0.00037061,0.00055535,0.00059639,0.0002
 6956,0.15729236,0.00665052,0.00957381,0.00598507,-0.10133864,-0.156470
 29,-0.08737205,-0.02147362,-0.00907484,-0.01687688,0.00161570,-0.00556
 520,-0.00016239,0.00241537,-0.00085633,0.00149783,-0.00007305,-0.00007
 194,0.00064171,0.00023069,-0.00010454,-0.00024369,-0.00007238,-0.00004
 285,0.00011589,0.00022814,-0.00007995,-0.00016917,-0.00104139,0.000178
 85,-0.00048964,0.11407576,0.16077740,-0.00325810,-0.00846013,-0.002318
 82,-0.10251255,-0.09182086,-0.11512407,0.00042625,0.00328981,0.0057594
 1,-0.00476572,0.00129773,0.00635845,-0.00236803,0.00009416,-0.00113422
 ,-0.00069148,0.00074835,-0.00108865,-0.00109155,-0.00087743,-0.0009761
 5,-0.00006270,-0.00001864,0.00035632,0.00012583,0.00013792,0.00036934,
 0.00063983,0.00029323,0.00022834,0.11016151,0.09672846,0.11154595,0.00
 470161,-0.00000580,-0.00536467,0.00485928,-0.00211401,-0.00064626,-0.1
 5847447,0.10597769,-0.09770063,-0.00440919,0.01387538,-0.00706800,-0.0
 0298838,-0.00137373,-0.00068614,0.00122617,-0.00096688,0.00098254,0.00
 022974,0.00016194,-0.00095332,-0.00052358,-0.00008688,0.00041424,0.000
 27358,-0.00007057,-0.00037189,-0.00034052,-0.00002731,-0.00019576,-0.0
 0188386,0.00040613,0.00309115,0.15673007,-0.00153370,-0.00552188,-0.00
 008242,0.02140724,-0.00936557,0.01660709,0.10327621,-0.16033472,0.0867
 5096,-0.00660649,0.00949560,-0.00572874,-0.00237171,-0.00080914,-0.001
 49686,-0.00019953,-0.00013941,0.00025879,0.00010911,-0.00004147,-0.000
 66006,-0.00022536,-0.00008122,0.00018424,0.00007810,-0.00003508,-0.000
 11997,0.00146845,-0.00017489,0.00068751,-0.00046062,0.00100447,-0.0006
 1763,-0.11614893,0.16496294,-0.00484690,-0.00153269,0.00633174,0.00088
 800,-0.00365801,0.00607324,-0.10038783,0.09129504,-0.11173200,-0.00335
 372,0.00870773,-0.00226266,-0.00244256,-0.00008329,-0.00119328,-0.0010
 0775,0.00091307,-0.00098071,-0.00070996,-0.00073704,-0.00109084,0.0001
 1629,-0.00014078,0.00037313,-0.00008117,0.00000313,0.00031110,0.000586
 10,-0.00001627,0.00074522,0.00307763,0.00070237,-0.00371285,0.10773781
 ,-0.09596143,0.10786571,-0.00025966,0.00008100,-0.00046572,-0.00395892
 ,-0.00159225,-0.00335726,0.00324478,-0.02521982,-0.00609668,-0.0469184
 1,0.00471663,0.00004355,-0.00176796,0.00171662,0.00105375,-0.00258686,
 0.00126008,0.00377709,0.00058523,0.02277719,0.00620206,0.00155169,-0.0
 0020755,-0.00018622,0.00058723,0.00027758,-0.00030571,0.00044431,-0.00
 003178,0.00001269,-0.00033925,-0.00148153,0.00055616,0.00055831,0.0010
 3124,0.00066048,0.04879107,0.00019439,-0.00323834,0.00250325,0.0001141
 4,-0.00032238,-0.00072503,0.00060551,-0.00280220,0.00033594,0.00245170
 ,-0.28170056,-0.08645827,-0.00017433,-0.01335853,-0.00911389,-0.000821
 22,0.00044794,-0.00027266,-0.00049241,-0.00230257,-0.00031725,0.000376
 83,0.00000022,-0.00006689,0.00005002,0.00015259,0.00014658,0.00003316,
 -0.00073923,-0.00103739,0.00003260,-0.00015672,-0.00000393,-0.00060013
 ,0.00017308,-0.00029914,-0.00299956,0.30328651,-0.00027409,0.00451954,
 -0.00375417,-0.00316154,-0.00096752,-0.00162652,0.00349524,-0.01355210
 ,-0.00446486,-0.00101725,-0.08679638,-0.08083162,0.00034170,0.01968712
 ,0.01181575,0.00213740,0.00043286,-0.00279870,-0.00078013,-0.01772638,
 -0.00548091,-0.00022360,0.00057285,0.00064508,-0.00013936,0.00015753,0
 .00020542,0.00001305,0.00099745,0.00133905,-0.00019735,-0.00070609,0.0
 0073304,0.00026115,0.00048515,0.00023131,-0.00080546,0.09505726,0.0823
 0311,-0.00026298,0.00015422,-0.00198924,0.00151815,0.00007857,-0.00154
 106,0.00151474,-0.00006592,-0.00154066,-0.00029895,-0.00014875,-0.0018
 8715,-0.21551724,-0.00099303,0.12963574,0.00025389,0.00018228,-0.00076
 253,0.00035078,-0.00017591,-0.00076560,0.00012783,0.00017347,0.0000346
 1,0.00005427,-0.00006085,0.00010485,0.00010029,0.00041667,0.00030081,0
 .00004351,-0.00007515,0.00017002,0.00005007,0.00007560,0.00016688,0.00
 010074,-0.00042281,0.00029100,0.23073567,0.01931824,0.00134790,-0.0159
 6511,0.00103729,-0.00033200,0.00034184,-0.00104781,-0.00031924,-0.0003
 6142,-0.01962986,0.00114034,0.01623036,-0.00099035,-0.04348655,0.00076
 917,-0.00067207,-0.00359263,-0.00417310,0.00082647,-0.00370944,0.00419
 035,0.00037730,-0.00029139,0.00002229,-0.00038074,-0.00030969,-0.00009
 470,0.00019342,0.00035252,0.00097270,-0.00012000,0.00001865,0.00006899
 ,0.00011455,0.00001814,-0.00006129,-0.00018698,0.00036639,-0.00096457,
 0.00107514,0.04723243,0.01274803,0.00211428,-0.01125873,0.00103141,-0.
 00101485,0.00107062,0.00101890,0.00097755,0.00108918,0.01245600,-0.001
 93645,-0.01102117,0.12442120,0.00080662,-0.14559643,-0.00067079,-0.001
 46157,-0.00333874,-0.00067698,0.00146137,-0.00320507,-0.00031076,0.000
 00958,0.00005888,-0.00042540,0.00006619,0.00009527,-0.00019391,-0.0002
 1828,0.00052563,-0.00008770,-0.00003691,-0.00003549,-0.00007992,0.0000
 3893,-0.00003562,-0.00019624,0.00021428,0.00050705,-0.13834064,-0.0009
 0204,0.16008780,-0.00054416,-0.00011542,0.00072134,0.00001522,0.000686
 54,-0.00086867,0.00005719,-0.00073560,-0.00085882,-0.00040238,0.000090
 44,0.00083757,-0.23723020,0.00083339,-0.11610026,-0.00028306,-0.000097
 49,-0.00026373,-0.00020270,0.00005920,-0.00010069,-0.00077973,-0.00021
 896,0.00099912,-0.00134233,0.00056670,0.00147810,0.00009614,-0.0004120
 5,-0.00031295,0.00029421,0.00004759,-0.00024667,0.00030443,-0.00002608
 ,-0.00022252,0.00008483,0.00043750,-0.00030262,-0.01955744,0.00013316,
 -0.01313846,0.26005399,-0.02127223,0.00243956,-0.01171103,0.00065066,-
 0.00314192,-0.00338090,-0.00061345,-0.00328430,0.00336215,0.02168265,0
 .00221559,0.01208116,0.00085723,-0.04783389,0.00069546,-0.00067299,0.0
 0062859,0.00098601,0.00066813,0.00064714,-0.00100928,-0.00025659,0.000
 58108,0.00076215,0.00029698,0.00054566,-0.00083921,-0.00004913,0.00028
 064,0.00089328,-0.00084251,0.00070176,-0.00074549,0.00086276,0.0006975
 4,0.00077021,0.00003370,0.00030405,-0.00091632,-0.00014782,-0.00011561
 ,-0.00011262,-0.00145763,0.04675987,-0.01344701,0.00346684,-0.00793198
 ,-0.00209480,-0.00214749,-0.00202943,-0.00213288,0.00217347,-0.0019509
 3,-0.01332494,-0.00320252,-0.00788586,-0.11137701,0.00063199,-0.123825
 19,-0.00090742,-0.00010468,0.00042957,-0.00084526,0.00009158,0.0004033
 6,0.00032179,0.00017064,-0.00074456,0.00028726,-0.00007406,-0.00091137
 ,0.00030144,-0.00023726,0.00045219,-0.00026798,0.00053335,-0.00093962,
 -0.00025767,-0.00050469,-0.00094873,0.00030864,0.00023016,0.00045233,0
 .01548724,-0.00010429,0.01162001,0.12639568,-0.00070788,0.13199804,-0.
 00043688,0.01206302,0.01948092,0.00158523,-0.00026737,0.00143364,0.000
 48539,0.00011944,-0.00026193,-0.00041857,0.00080463,0.00085080,-0.0043
 1253,-0.00077601,0.00289981,-0.04694477,-0.00676461,-0.01627273,-0.001
 92943,-0.00024480,0.00255754,-0.00200012,-0.00114260,-0.00001259,-0.00
 070780,-0.01030845,-0.02385043,0.00063442,-0.00039252,-0.00040965,-0.0
 0028715,-0.00007611,-0.00001413,-0.00012040,0.00004717,0.00002592,-0.0
 0031357,0.00014651,0.00009385,0.00018244,0.00131850,0.00101379,0.00008
 439,-0.00000534,0.00009883,0.05483184,0.00048432,0.00591851,0.01001124
 ,0.00078210,0.00037333,0.00001893,-0.00048692,-0.00010712,-0.00000414,
 -0.00152811,-0.00426451,-0.00098174,-0.00188918,-0.00095975,0.00135771
 ,-0.00530359,-0.10156637,-0.10794123,0.00087042,-0.00691359,-0.0251487
 4,-0.00103598,-0.00160912,-0.00006754,-0.00121424,0.00163933,0.0056622
 3,0.00069845,0.00008851,-0.00040668,0.00014298,0.00005417,-0.00006621,
 0.00006963,0.00002262,0.00003947,0.00111401,-0.00020318,-0.00090492,0.
 00001056,0.00071780,0.00023501,0.00005060,-0.00017737,-0.00002279,0.00
 785294,0.10426244,-0.00041465,-0.00915580,-0.01459519,-0.00135872,0.00
 152069,0.00078639,-0.00023175,-0.00107763,-0.00009959,0.00124349,0.001
 86375,-0.00000403,0.00322715,0.00157037,-0.00149465,-0.01413614,-0.108
 93612,-0.25931740,-0.00200404,0.00341154,0.00615224,-0.00039944,-0.000
 54525,0.00002101,0.00183573,-0.00357321,-0.00867317,-0.00009507,0.0004
 8805,-0.00004364,0.00056539,-0.00018006,0.00005902,0.00007725,-0.00003
 168,0.00000314,-0.00022838,0.00003352,0.00035685,0.00005609,-0.0010529
 2,-0.00061453,-0.00011571,0.00016860,0.00020838,0.01349676,0.11705371,
 0.27556078,-0.00029123,-0.00082304,0.00081983,0.00048456,-0.00000128,-
 0.00029866,0.00139023,0.00009234,0.00162504,-0.00031478,-0.01199261,0.
 01945879,-0.00424156,0.00072116,0.00296206,-0.00214804,0.00031141,0.00
 251122,-0.04772961,0.00993868,-0.02284220,-0.00166782,0.01061546,-0.02
 361739,-0.00232565,0.00137600,-0.00010456,-0.00031326,-0.00015009,0.00
 009368,-0.00011865,-0.00004542,0.00002496,-0.00027452,0.00009009,-0.00
 001454,0.00060237,0.00038488,-0.00038920,0.00018275,-0.00133590,0.0009
 8562,0.00008517,0.00002276,0.00008509,0.00095203,0.00036863,0.00009150
 ,0.05679286,0.00151012,-0.00408842,0.00092401,0.00048730,-0.00013278,-
 0.00001265,-0.00075999,0.00046708,0.00000251,-0.00065094,0.00584476,-0
 .00960350,0.00179971,-0.00089780,-0.00131552,-0.00023040,-0.00665304,0
 .02485889,0.00831732,-0.10375841,0.10850048,0.00125938,0.00161449,-0.0
 0571268,0.00121542,-0.00170593,0.00012195,-0.00107159,-0.00022023,0.00
 087662,-0.00007248,0.00002321,-0.00004501,-0.00016437,0.00004861,0.000
 07107,-0.00068260,0.00007732,0.00040874,-0.00000550,0.00069890,-0.0002
 0140,-0.00002867,-0.00018056,0.00001702,-0.00034933,0.00233574,-0.0009
 1010,-0.01162091,0.10608514,0.00127510,-0.00181483,-0.00005426,-0.0003
 0499,0.00109279,-0.00003305,-0.00144475,-0.00161563,0.00076735,-0.0004
 6304,0.00964905,-0.01537600,0.00333323,-0.00159202,-0.00163890,-0.0019
 3722,-0.00353357,0.00620025,-0.02072678,0.10965226,-0.25596690,0.00176
 330,0.00339174,-0.00799368,-0.00046818,0.00054552,0.00026657,-0.000217
 29,-0.00003959,0.00035531,0.00009199,0.00003667,-0.00001051,0.00059422
 ,0.00018543,0.00006540,-0.00009969,-0.00049095,-0.00006153,0.00007248,
 0.00110483,-0.00061571,-0.00009268,-0.00017151,0.00020935,0.00009493,0
 .00094098,0.00053937,0.01994338,-0.11794129,0.27213961,-0.00002279,-0.
 00076177,-0.00028189,0.00043113,-0.00010345,0.00033189,0.00050788,0.00
 012249,-0.00024317,0.00265457,0.00027953,0.00021101,-0.00051072,-0.000
 08792,-0.00003829,-0.00298762,-0.00110308,-0.00092032,-0.00025507,-0.0
 1155651,-0.02476761,-0.04880599,-0.00995307,-0.02070826,-0.00191289,0.
 00075496,0.00433845,-0.00020647,0.00004682,0.00022970,0.00001808,0.000
 02395,0.00004805,0.00014094,0.00004120,0.00001049,-0.00024696,0.000500
 13,0.00033547,0.00020927,0.00006519,0.00018571,-0.00015700,-0.00061866
 ,0.00051687,-0.00012484,-0.00065860,-0.00003703,-0.00285635,-0.0011349
 5,-0.00148879,0.05008473,0.00009623,-0.00025262,-0.00062513,-0.0001692
 9,0.00025444,0.00020769,-0.00024981,-0.00020278,-0.00004027,-0.0001351
 7,0.00144800,-0.00034320,-0.00054628,0.00015084,-0.00073430,-0.0017034
 9,-0.00201535,-0.00010011,-0.00258305,0.00059150,0.00570005,-0.0089385
 5,-0.10002344,-0.10361784,0.00015907,-0.00964053,-0.02607959,0.0000117
 2,-0.00001772,0.00003132,0.00004092,-0.00000851,-0.00000359,0.00002437
 ,0.00003337,0.00001015,-0.00039753,-0.00008755,0.00021521,0.00019838,0
 .00008168,0.00016989,-0.00010466,-0.00031412,0.00053392,-0.00064779,-0
 .00018215,-0.00015171,0.00125748,-0.00031648,0.00047103,0.01282891,0.1
 0537069,0.00038244,-0.00028046,-0.00024493,0.00014683,-0.00007440,0.00
 024446,0.00019205,0.00024758,0.00011727,0.00145587,0.00034647,0.000420
 00,-0.00012775,0.00040160,0.00016866,-0.00078173,0.00047132,-0.0002334
 8,-0.00008023,-0.00280335,-0.00864104,-0.02023137,-0.10420783,-0.25354
 926,0.00068343,0.00238396,0.00513264,-0.00012948,-0.00000164,0.0000891
 6,0.00001080,0.00001729,-0.00000504,0.00005495,0.00000929,-0.00005108,
 -0.00072227,0.00016246,0.00032975,0.00000879,-0.00012560,0.00011685,0.
 00051170,0.00004119,0.00020789,0.00000014,-0.00027611,0.00008759,-0.00
 153603,-0.00103973,-0.00038519,0.02253897,0.11366206,0.27253137,-0.000
 25605,0.00017908,0.00024148,-0.00026260,-0.00045934,-0.00015753,-0.000
 56295,0.00041645,0.00082481,-0.00268296,-0.00189288,-0.00320907,0.0003
 9745,0.00030244,-0.00047634,-0.00067479,-0.00022915,-0.00143282,-0.018
 01678,-0.00809781,0.02004911,-0.16758807,-0.06672332,0.11523843,0.0037
 2681,0.00198771,-0.00476279,-0.00001157,-0.00012543,0.00002639,0.00014
 359,-0.00006285,-0.00015534,-0.00021318,-0.00008998,-0.00010335,0.0000
 5632,0.00012092,0.00006172,-0.00001016,-0.00003718,0.00004203,-0.00004
 235,0.00006688,0.00009948,-0.00014344,-0.00057705,-0.00007231,0.002027
 61,0.00097297,0.00014151,0.00304709,0.00169017,-0.00179763,0.17982472,
 -0.00045538,0.00003641,-0.00021736,0.00034186,-0.00005829,0.00034537,0
 .00023167,0.00015766,-0.00014486,0.00138189,0.00001453,0.00025868,0.00
 011725,0.00000505,0.00008901,0.00040797,-0.00191880,-0.00106058,0.0033
 0328,0.00127462,-0.00532278,-0.06661022,-0.08152770,0.06132338,-0.0192
 0037,-0.01152128,0.02102119,0.00015784,0.00009505,-0.00002004,-0.00002
 837,0.00001527,-0.00000174,0.00008635,0.00004824,-0.00001857,-0.000059
 14,0.00003309,0.00000974,-0.00001029,0.00004273,0.00000924,0.00011799,
 -0.00020885,0.00003859,-0.00072021,-0.00010773,-0.00028226,-0.00062363
 ,0.00102172,-0.00026305,0.01049301,0.00642004,-0.00901554,0.07182752,0
 .08805842,0.00012857,0.00007416,0.00018752,-0.00011893,-0.00011377,0.0
 0002707,-0.00010727,0.00014843,0.00028016,-0.00123282,-0.00066403,-0.0
 0091112,-0.00036059,0.00007175,-0.00049876,-0.00023476,-0.00041428,-0.
 00111058,-0.01021160,-0.00421393,0.00841032,0.11522526,0.06122039,-0.1
 5576380,0.00021760,-0.00069147,-0.00162374,0.00000510,-0.00000888,0.00
 001565,0.00008082,-0.00002139,0.00002474,0.00000202,-0.00001202,-0.000
 02867,-0.00003148,0.00009415,-0.00001417,0.00017593,0.00000818,0.00017
 502,0.00029077,-0.00016809,0.00038972,-0.00013889,-0.00027845,-0.00001
 788,0.00046293,0.00033453,0.00158041,0.01986342,0.01070382,-0.01781929
 ,-0.12366284,-0.06645063,0.16466284,0.00244941,-0.00028984,0.00013246,
 0.00048150,-0.00006988,-0.00024536,0.00039237,0.00002892,0.00029158,0.
 00004295,0.00071860,-0.00029257,-0.00077909,0.00022400,-0.00002242,0.0
 0019688,0.01004696,-0.02577564,-0.00266856,0.00077644,-0.00066326,-0.0
 0190982,-0.00105797,0.00480167,-0.04645771,0.00340281,-0.00750334,-0.0
 0019900,-0.00047795,0.00028691,0.00014240,-0.00004037,0.00002522,0.000
 01547,-0.00002272,0.00005302,-0.00018201,-0.00006189,0.00021748,0.0002
 3362,-0.00010187,0.00018956,-0.00046525,0.00088727,0.00066595,-0.00304
 746,0.00114783,-0.00161753,-0.00008570,0.00058972,-0.00000950,0.000956
 85,0.00067749,-0.00006496,0.00009919,-0.00162565,-0.00003913,0.0490170
 5,0.00014033,0.00153447,0.00026806,0.00021611,-0.00023946,0.00003175,0
 .00017716,0.00025775,-0.00017896,-0.00009841,-0.00028288,0.00053835,0.
 00069145,0.00015506,0.00086289,0.00235516,0.00046316,-0.00592048,0.001
 41552,-0.00163180,0.00003739,-0.00185264,-0.00911634,0.02756573,0.0027
 6031,-0.08781379,0.09427137,0.00036913,-0.00010888,-0.00022236,-0.0000
 2315,0.00003226,-0.00001719,-0.00004679,-0.00001375,-0.00000664,0.0000
 0057,-0.00001598,-0.00002898,-0.00025416,0.00008410,-0.00019846,0.0002
 8956,-0.00035732,-0.00070659,-0.00133843,-0.00029733,-0.00050833,0.000
 61333,-0.00016167,0.00009000,-0.00067035,0.00280390,-0.00062539,0.0015
 5483,-0.00454621,0.00071090,-0.00526292,0.09278491,0.00161319,-0.00041
 684,0.00024526,0.00018853,-0.00025395,0.00012641,0.00014102,0.00003171
 ,0.00030738,0.00036909,0.00027151,-0.00022345,0.00013611,-0.00054907,-
 0.00006817,-0.00033568,0.00273580,-0.01027748,-0.00079511,-0.00030404,
 -0.00040511,0.00044171,-0.00163757,0.00384888,-0.00749058,0.09524504,-
 0.26761425,-0.00072101,-0.00018920,0.00032335,0.00007147,-0.00000993,-
 0.00005243,0.00001983,-0.00001560,0.00001343,-0.00011882,-0.00000207,0
 .00008467,0.00009391,0.00012052,0.00016861,0.00095010,-0.00016607,0.00
 031942,-0.00168211,0.00116760,-0.00042807,-0.00007742,0.00032377,0.000
 08996,-0.00004023,0.00051943,0.00103117,-0.00064052,-0.00060871,0.0005
 7812,0.00834120,-0.10323576,0.28845281,-0.00249660,0.00179820,-0.00292
 474,-0.00053948,-0.00041996,0.00075879,-0.00019693,0.00046621,-0.00014
 806,-0.00022524,-0.00013590,0.00022442,0.00041179,-0.00032783,-0.00044
 419,-0.01659511,0.00911305,0.01841214,-0.00093000,0.00037636,-0.001544
 61,0.00410933,-0.00228548,-0.00491268,-0.17717969,0.07828911,0.1081806
 8,0.00002430,-0.00012903,0.00008674,-0.00020256,0.00008666,-0.00010273
 ,0.00013840,0.00006069,-0.00015232,-0.00003327,0.00012404,0.00004255,-
 0.00001125,0.00004351,0.00002853,-0.00006898,-0.00009266,0.00008670,0.
 00203123,-0.00089882,0.00011740,-0.00015041,0.00061979,-0.00005721,0.0
 0003615,-0.00150910,-0.00051452,0.00114210,0.00086665,-0.00031412,0.00
 176689,-0.00103659,-0.00046469,0.18896934,-0.00136030,0.00003223,-0.00
 028898,-0.00023932,0.00012175,0.00012892,-0.00034688,-0.00003907,-0.00
 035597,0.00043892,0.00000723,0.00028356,-0.00014474,0.00004272,-0.0000
 7525,-0.00341397,0.00138747,0.00549189,-0.00006450,-0.00236896,0.00124
 280,0.01954115,-0.01177520,-0.01880430,0.07824038,-0.09287644,-0.06427
 587,0.00003042,0.00001832,-0.00000775,-0.00008944,0.00005132,0.0000191
 8,0.00002661,0.00001254,0.00000291,-0.00014990,0.00008606,0.00001981,-
 0.00000468,0.00005498,-0.00002035,-0.00011610,-0.00018755,-0.00007533,
 0.00068137,0.00097579,0.00029483,0.00080065,-0.00010162,0.00030215,0.0
 0149215,-0.00409320,0.00070684,-0.00082397,0.00266602,-0.00032937,-0.0
 0948895,0.00646981,0.00697343,-0.08500890,0.09951581,-0.00115961,0.000
 64322,-0.00106003,-0.00009973,-0.00017628,0.00030555,-0.00008060,0.000
 15692,0.00008773,0.00004359,0.00000980,0.00014339,-0.00029278,-0.00013
 765,-0.00072078,-0.01057126,0.00532995,0.00827300,-0.00060295,0.000734
 37,-0.00120000,-0.00088251,0.00159349,-0.00079599,0.10795495,-0.064030
 99,-0.13635726,-0.00001503,-0.00008559,-0.00000241,0.00000626,0.000009
 56,-0.00003675,0.00008911,0.00002372,0.00002302,-0.00000050,0.00000987
 ,0.00002908,0.00022855,-0.00002416,0.00020656,0.00043941,0.00016822,0.
 00047740,0.00059552,-0.00038832,0.00151337,-0.00018408,0.00034229,-0.0
 0007785,-0.00008445,-0.00052884,0.00045249,-0.00025443,0.00031091,0.00
 145643,0.02122866,-0.01272730,-0.01652051,-0.11635807,0.06876682,0.143
 80356\\-0.00003792,-0.00014562,-0.00006803,0.00002977,0.00003794,-0.00
 002671,-0.00001020,0.00004249,-0.00002169,-0.00000371,-0.00013002,0.00
 010226,0.00000095,-0.00005128,0.00000799,-0.00008823,-0.00008654,-0.00
 006802,0.00011696,0.00001875,0.00003844,-0.00015519,0.00003313,0.00035
 548,0.00018041,0.00001591,-0.00033122,-0.00002999,-0.00001557,-0.00004
 514,-0.00001488,-0.00000393,0.00001971,-0.00000352,0.00000086,0.000005
 11,0.00003330,-0.00001320,0.00003477,-0.00000374,-0.00001316,-0.000003
 88,-0.00000354,0.00001805,0.00000403,0.00022798,0.00015199,-0.00009276
 ,-0.00022563,0.00014078,0.00009538,0.00035352,0.00020309,-0.00014178,-
 0.00016735,-0.00021385,-0.00030986,-0.00034697,0.00020788,0.00010827,0
 .00014798,-0.00019771,0.00033766\\\@
 The archive entry for this job was punched.


 ERWIN WITH HIS PSI CAN DO
 CALCULATIONS QUITE A FEW.
 BUT ONE THING HAS NOT BEEN SEEN
 JUST WHAT DOES PSI REALLY MEAN.
 -- WALTER HUCKEL, TRANS. BY FELIX BLOCH
 Job cpu time:       0 days  1 hours 23 minutes 43.5 seconds.
 Elapsed time:       0 days  0 hours  5 minutes 27.6 seconds.
 File lengths (MBytes):  RWF=    209 Int=      0 D2E=      0 Chk=     11 Scr=      1
 Normal termination of Gaussian 16 at Tue Sep  6 23:12:48 2022.
