      -----------------------------------------------------------      
     |                   =====================                   |     
     |                           x T B                           |     
     |                   =====================                   |     
     |                         S. Grimme                         |     
     |          Mulliken Center for Theoretical Chemistry        |     
     |                    University of Bonn                     |     
      -----------------------------------------------------------      

   * xtb version 6.3.3 (7355c4f) compiled by 'conda@14e9545d6667' on 2020-09-17

   xtb is free software: you can redistribute it and/or modify it under
   the terms of the GNU Lesser General Public License as published by
   the Free Software Foundation, either version 3 of the License, or
   (at your option) any later version.
   
   xtb is distributed in the hope that it will be useful,
   but WITHOUT ANY WARRANTY; without even the implied warranty of
   MERCHANTABILITY or FITNESS FOR A PARTICULAR PURPOSE.  See the
   GNU Lesser General Public License for more details.
   
   Cite this work as:
   * C. Bannwarth, E. Caldeweyher, S. Ehlert, A. Hansen, P. Pracht,
     J. Seibert, S. Spicher, S. Grimme, WIREs Comput. Mol. Sci., 2020,
     e01493. DOI: 10.1002/wcms.1493
   
   for GFN2-xTB:
   * S. Grimme, C. Bannwarth, P. Shushkov, J. Chem. Theory Comput., 2017,
     13, 1989-2009. DOI: 10.1021/acs.jctc.7b00118
   for GFN1-xTB:
   * C. Bannwarth, S. Ehlert and S. Grimme., J. Chem. Theory Comput., 2019,
     15, 1652-1671. DOI: 10.1021/acs.jctc.8b01176
   for GFN0-xTB:
   * P. Pracht, E. Caldeweyher, S. Ehlert, S. Grimme, ChemRxiv, 2019, preprint.
     DOI: 10.26434/chemrxiv.8326202.v1
   for GFN-FF:
   * S. Spicher and S. Grimme, Angew. Chem. Int. Ed., 2020, 59, 15665-15673.
     DOI: 10.1002/anie.202004239
   
   for DFT-D4:
   * E. Caldeweyher, C. Bannwarth and S. Grimme, J. Chem. Phys., 2017,
     147, 034112. DOI: 10.1063/1.4993215
   * E. Caldeweyher, S. Ehlert, A. Hansen, H. Neugebauer, S. Spicher,
     C. Bannwarth and S. Grimme, J. Chem. Phys., 2019, 150, 154122.
     DOI: 10.1063/1.5090222
   * E. Caldeweyher, J.-M. Mewes, S. Ehlert and S. Grimme, Phys. Chem. Chem. Phys.
     2020, 22, 8499-8512. DOI: 10.1039/D0CP00502A
   
   for sTDA-xTB:
   * S. Grimme and C. Bannwarth, J. Chem. Phys., 2016, 145, 054103.
     DOI: 10.1063/1.4959605
   
   in the mass-spec context:
   * V. Asgeirsson, C. Bauer and S. Grimme, Chem. Sci., 2017, 8, 4879.
     DOI: 10.1039/c7sc00601b
   * J. Koopman and S. Grimme, ACS Omega 2019, 4, 12, 15120-15133.
     DOI: 10.1021/acsomega.9b02011
   
   for metadynamics refer to:
   * S. Grimme, J. Chem. Theory Comput., 2019, 155, 2847-2862
     DOI: 10.1021/acs.jctc.9b00143
   
   with help from (in alphabetical order)
   C. Bannwarth, F. Bohle, G. Brandenburg, E. Caldeweyher, M. Checinski,
   S. Dohm, S. Ehlert, S. Ehrlich, F. März, H. Neugebauer, J. Pisarek,
   P. Pracht, P. Shushkov, and S. Spicher.
   
 * started run on 2022/09/06 at 17:46:03.888     

           -------------------------------------------------
          |                Calculation Setup                |
           -------------------------------------------------

          program call               : xtb /home/svss/Project-DBcg-Debug/aqme2_20220329/20220906-example-end-to-end/End-to-end_Workflows/End-to-end workflow 2, SN2 PES/AQME inputs/CSEARCH/crest_xyz/TS2_crest/TS2_crest_xtb1.xyz --opt --input constrain2.inp -c 0 --uhf 0 -P 8
          hostname                   : fireball.chem.colostate.edu
          coordinate file            : /home/svss/Project-DBcg-Debug/aqme2_20220329/20220906-example-end-to-end/End-to-end_Workflows/End-to-end workflow 2, SN2 PES/AQME inputs/CSEARCH/crest_xyz/TS2_crest/TS2_crest_xtb1.xyz
          omp threads                :                     8
          number of atoms            :                    21
          number of electrons        :                    48
          charge                     :                     0
          spin                       :                   0.0
          first test random number   :      0.77875097555764

   ID    Z sym.   atoms
    1    6 C      1-9
    2    1 H      10-21
constraining bond 4 6 to    2.4000000 Å, actual value:    5.3593317 Å
constraining bond 1 7 to    2.4000000 Å, actual value:    5.5473695 Å
########################################################################
[WARNING] Please study the warnings concerning your input carefully
-1- prog_main_parseArguments: Process number higher than OMP_NUM_THREADS, I hope you know what you are doing.
########################################################################

           -------------------------------------------------
          |                 G F N 2 - x T B                 |
           -------------------------------------------------

        Reference                      10.1021/acs.jctc.8b01176
      * Hamiltonian:
        H0-scaling (s, p, d)           1.850000    2.230000    2.230000
        zeta-weighting                 0.500000
      * Dispersion:
        s8                             2.700000
        a1                             0.520000
        a2                             5.000000
        s9                             5.000000
      * Repulsion:
        kExp                           1.500000    1.000000
        rExp                           1.000000
      * Coulomb:
        alpha                          2.000000
        third order                    shell-resolved
        anisotropic                    true
        a3                             3.000000
        a5                             4.000000
        cn-shift                       1.200000
        cn-exp                         4.000000
        max-rad                        5.000000

q/qsh data taken from xtbrestart
CAMM data taken from xtbrestart

          ...................................................
          :                      SETUP                      :
          :.................................................:
          :  # basis functions                  48          :
          :  # atomic orbitals                  48          :
          :  # shells                           30          :
          :  # electrons                        48          :
          :  max. iterations                   250          :
          :  Hamiltonian                  GFN2-xTB          :
          :  restarted?                       true          :
          :  GBSA solvation                  false          :
          :  PC potential                    false          :
          :  electronic temp.          300.0000000     K    :
          :  accuracy                    1.0000000          :
          :  -> integral cutoff          0.2500000E+02      :
          :  -> integral neglect         0.1000000E-07      :
          :  -> SCF convergence          0.1000000E-05 Eh   :
          :  -> wf. convergence          0.1000000E-03 e    :
          :  Broyden damping             0.4000000          :
          ...................................................

 iter      E             dE          RMSdq      gap      omega  full diag
   1    -25.7458182 -0.257458E+02  0.266E-06    3.98       0.0  T
   2    -25.7458182 -0.248690E-13  0.147E-06    3.98   14876.9  T
   3    -25.7458182  0.603961E-13  0.100E-06    3.98   21810.6  T

   *** convergence criteria satisfied after 3 iterations ***

         #    Occupation            Energy/Eh            Energy/eV
      -------------------------------------------------------------
         1        2.0000           -0.6654250             -18.1071
       ...           ...                  ...                  ...
        18        2.0000           -0.4438696             -12.0783
        19        2.0000           -0.4432097             -12.0603
        20        2.0000           -0.4344847             -11.8229
        21        2.0000           -0.4212426             -11.4626
        22        2.0000           -0.4121625             -11.2155
        23        2.0000           -0.4082875             -11.1101
        24        2.0000           -0.3604049              -9.8071 (HOMO)
        25                         -0.2141450              -5.8272 (LUMO)
        26                         -0.0144506              -0.3932
        27                          0.0704674               1.9175
        28                          0.0758483               2.0639
        29                          0.0972455               2.6462
       ...                                ...                  ...
        48                          0.6610348              17.9877
      -------------------------------------------------------------
                  HL-Gap            0.1462599 Eh            3.9799 eV
             Fermi-level           -0.2872750 Eh           -7.8171 eV

 SCC (total)                   0 d,  0 h,  0 min,  0.371 sec
 SCC setup                      ...        0 min,  0.000 sec (  0.098%)
 Dispersion                     ...        0 min,  0.000 sec (  0.099%)
 classical contributions        ...        0 min,  0.000 sec (  0.050%)
 integral evaluation            ...        0 min,  0.005 sec (  1.374%)
 iterations                     ...        0 min,  0.330 sec ( 89.052%)
 molecular gradient             ...        0 min,  0.032 sec (  8.586%)
 printout                       ...        0 min,  0.002 sec (  0.646%)

         :::::::::::::::::::::::::::::::::::::::::::::::::::::
         ::                     SUMMARY                     ::
         :::::::::::::::::::::::::::::::::::::::::::::::::::::
         :: total energy             -25.319964804273 Eh    ::
         :: gradient norm              0.265510496322 Eh/a0 ::
         :: HOMO-LUMO gap              3.979933356284 eV    ::
         ::.................................................::
         :: SCC energy               -25.745818167854 Eh    ::
         :: -> isotropic ES            0.002095953708 Eh    ::
         :: -> anisotropic ES          0.003700362592 Eh    ::
         :: -> anisotropic XC          0.014168640103 Eh    ::
         :: -> dispersion             -0.017937975785 Eh    ::
         :: repulsion energy           0.425717880194 Eh    ::
         :: add. restraining           0.000066468259 Eh    ::
         :: total charge               0.000000000000 e     ::
         :::::::::::::::::::::::::::::::::::::::::::::::::::::

      ----------------------------------------------------------- 
     |                   =====================                   |
     |                        A N C O P T                        |
     |                   =====================                   |
     |               Approximate Normal Coordinate               |
     |                Rational Function Optimizer                |
      ----------------------------------------------------------- 

          ...................................................
          :                      SETUP                      :
          :.................................................:
          :   optimization level            normal          :
          :   max. optcycles                   200          :
          :   ANC micro-cycles                  20          :
          :   degrees of freedom                57          :
          :.................................................:
          :   RF solver                   davidson          :
          :   write xtbopt.log                true          :
          :   linear?                        false          :
          :   energy convergence         0.5000000E-05 Eh   :
          :   grad. convergence          0.1000000E-02 Eh/α :
          :   maximium RF displ.         1.0000000          :
          :   Hlow (freq-cutoff)         0.1000000E-01      :
          :   Hmax (freq-cutoff)         5.0000000          :
          :   S6 in model hess.         20.0000000          :
          ...................................................

generating ANC from model Hessian ...
Using Lindh-Hessian (1995)
 Shifting diagonal of input Hessian by    3.2156789165817780E-003
 Lowest  eigenvalues of input Hessian
    0.000000    0.000000    0.000000    0.000000    0.000000    0.000000
    0.010000    0.011715    0.017155    0.022565    0.024185    0.030534
    0.051260    0.052871    0.054329    0.054416    0.056266    0.061086
 Highest eigenvalues
    1.538043    1.637448    1.746933    1.838567    2.769210    3.156504


........................................................................
.............................. CYCLE    1 ..............................
........................................................................
   1    -25.7458182 -0.257458E+02  0.593E-07    3.98       0.0  T
   2    -25.7458182 -0.603961E-13  0.607E-07    3.98   35969.3  T
   3    -25.7458182  0.248690E-13  0.178E-07    3.98  100000.0  T
     SCC iter.                  ...        0 min,  0.148 sec
     gradient                   ...        0 min,  0.027 sec
 * total energy  :   -25.3199648 Eh     change       -0.6394885E-13 Eh
   gradient norm :     0.2655105 Eh/α   predicted     0.0000000E+00 (-100.00%)
   displ. norm   :     0.2385880 α      lambda       -0.4778961E-01
   maximum displ.:     0.0929617 α      in ANC's #54, #20, #52, ...

........................................................................
.............................. CYCLE    2 ..............................
........................................................................
   1    -25.7545000 -0.257545E+02  0.210E-01    4.59       0.0  T
   2    -25.7546738 -0.173828E-03  0.135E-01    4.57       1.0  T
   3    -25.7546780 -0.415579E-05  0.501E-02    4.57       1.0  T
   4    -25.7546804 -0.239019E-05  0.873E-03    4.57       2.5  T
   5    -25.7546809 -0.534865E-06  0.527E-03    4.57       4.1  T
   6    -25.7546811 -0.241252E-06  0.137E-03    4.57      15.9  T
   7    -25.7546812 -0.195391E-07  0.301E-04    4.57      72.5  T
   8    -25.7546812 -0.117222E-09  0.117E-04    4.57     186.8  T
     SCC iter.                  ...        0 min,  0.269 sec
     gradient                   ...        0 min,  0.011 sec
 * total energy  :   -25.3528547 Eh     change       -0.3288989E-01 Eh
   gradient norm :     0.1116082 Eh/α   predicted    -0.2525500E-01 ( -23.21%)
   displ. norm   :     0.1572612 α      lambda       -0.1464928E-01
   maximum displ.:     0.0704220 α      in ANC's #54, #52, #4, ...

........................................................................
.............................. CYCLE    3 ..............................
........................................................................
   1    -25.7603087 -0.257603E+02  0.155E-01    5.05       0.0  T
   2    -25.7603773 -0.685583E-04  0.935E-02    5.03       1.0  T
   3    -25.7603782 -0.943196E-06  0.330E-02    5.04       1.0  T
   4    -25.7603801 -0.187590E-05  0.442E-03    5.03       4.9  T
   5    -25.7603802 -0.118433E-06  0.242E-03    5.03       9.0  T
   6    -25.7603802 -0.485493E-08  0.139E-03    5.03      15.7  T
   7    -25.7603803 -0.280396E-07  0.179E-04    5.03     121.7  T
   8    -25.7603803 -0.612879E-10  0.849E-05    5.03     257.0  T
     SCC iter.                  ...        0 min,  0.330 sec
     gradient                   ...        0 min,  0.010 sec
 * total energy  :   -25.3612597 Eh     change       -0.8405047E-02 Eh
   gradient norm :     0.0271301 Eh/α   predicted    -0.7505785E-02 ( -10.70%)
   displ. norm   :     0.1043365 α      lambda       -0.1295913E-02
   maximum displ.:     0.0728609 α      in ANC's #4, #20, #6, ...

........................................................................
.............................. CYCLE    4 ..............................
........................................................................
   1    -25.7550685 -0.257551E+02  0.979E-02    5.00       0.0  T
   2    -25.7550696 -0.109577E-05  0.577E-02    5.00       1.0  T
   3    -25.7550698 -0.154674E-06  0.326E-03    4.99       6.7  T
   4    -25.7550698 -0.386355E-07  0.181E-03    4.99      12.1  T
   5    -25.7550698 -0.899741E-08  0.117E-03    4.99      18.7  T
   6    -25.7550698 -0.152185E-07  0.199E-04    4.99     109.6  T
   7    -25.7550698 -0.107057E-09  0.797E-05    4.99     273.9  T
     SCC iter.                  ...        0 min,  0.191 sec
     gradient                   ...        0 min,  0.016 sec
 * total energy  :   -25.3620284 Eh     change       -0.7686248E-03 Eh
   gradient norm :     0.0076325 Eh/α   predicted    -0.6550103E-03 ( -14.78%)
   displ. norm   :     0.0460657 α      lambda       -0.1341796E-03
   maximum displ.:     0.0300799 α      in ANC's #4, #15, #19, ...

........................................................................
.............................. CYCLE    5 ..............................
........................................................................
   1    -25.7541864 -0.257542E+02  0.413E-02    4.99       0.0  T
   2    -25.7541866 -0.172470E-06  0.242E-02    4.99       1.0  T
   3    -25.7541866 -0.159982E-07  0.164E-03    4.99      13.3  T
   4    -25.7541866 -0.320410E-07  0.661E-04    4.99      33.0  T
   5    -25.7541866  0.117943E-08  0.457E-04    4.99      47.7  T
     SCC iter.                  ...        0 min,  0.106 sec
     gradient                   ...        0 min,  0.016 sec
 * total energy  :   -25.3621102 Eh     change       -0.8180788E-04 Eh
   gradient norm :     0.0028681 Eh/α   predicted    -0.6723262E-04 ( -17.82%)
   displ. norm   :     0.0197198 α      lambda       -0.2230198E-04
   maximum displ.:     0.0102387 α      in ANC's #19, #4, #15, ...

........................................................................
.............................. CYCLE    6 ..............................
........................................................................
   1    -25.7545358 -0.257545E+02  0.169E-02    4.99       0.0  T
   2    -25.7545358 -0.709371E-07  0.990E-03    4.99       2.2  T
   3    -25.7545358  0.126310E-07  0.128E-03    4.99      17.1  T
   4    -25.7545359 -0.247679E-07  0.212E-04    4.99     102.7  T
   5    -25.7545358  0.842029E-10  0.150E-04    4.99     145.8  T
     SCC iter.                  ...        0 min,  0.094 sec
     gradient                   ...        0 min,  0.016 sec
 * total energy  :   -25.3621235 Eh     change       -0.1335093E-04 Eh
   gradient norm :     0.0011142 Eh/α   predicted    -0.1115815E-04 ( -16.42%)
   displ. norm   :     0.0085099 α      lambda       -0.2976527E-05
   maximum displ.:     0.0044731 α      in ANC's #19, #20, #15, ...

........................................................................
.............................. CYCLE    7 ..............................
........................................................................
   1    -25.7549676 -0.257550E+02  0.838E-03    4.99       0.0  T
   2    -25.7549676 -0.211918E-07  0.491E-03    4.99       4.4  T
   3    -25.7549676  0.404498E-08  0.723E-04    4.99      30.2  T
   4    -25.7549676 -0.753304E-08  0.108E-04    4.99     202.9  T
     SCC iter.                  ...        0 min,  0.157 sec
     gradient                   ...        0 min,  0.011 sec
 * total energy  :   -25.3621251 Eh     change       -0.1548525E-05 Eh
   gradient norm :     0.0003806 Eh/α   predicted    -0.1492996E-05 (  -3.59%)
   displ. norm   :     0.0032723 α      lambda       -0.4180612E-06
   maximum displ.:     0.0019465 α      in ANC's #15, #4, #24, ...

   *** GEOMETRY OPTIMIZATION CONVERGED AFTER 7 ITERATIONS ***

------------------------------------------------------------------------
 total energy gain   :        -0.0421603 Eh      -26.4560 kcal/mol
 total RMSD          :         0.0940430 a0        0.0498 Å
 total power (kW/mol):       -15.8131104 (step)  -68.5955 (real)
------------------------------------------------------------------------

 ANCopt (total)                0 d,  0 h,  0 min,  1.614 sec
 optimizer setup                ...        0 min,  0.001 sec (  0.087%)
 model hessian                  ...        0 min,  0.072 sec (  4.456%)
 ANC generation                 ...        0 min,  0.007 sec (  0.437%)
 coordinate transformation      ...        0 min,  0.001 sec (  0.049%)
 single point calculation       ...        0 min,  1.511 sec ( 93.608%)
 optimization log               ...        0 min,  0.004 sec (  0.220%)
 hessian update                 ...        0 min,  0.002 sec (  0.107%)
 rational function              ...        0 min,  0.006 sec (  0.341%)

================
 final structure:
================
21
 xtb: 6.3.3 (7355c4f)
C         0.14865228118198   -1.09334584163441    1.56776256358220
C         1.29950531584922   -0.52442600211081    0.77256863341051
C         1.17965691091639    0.79697489777454    0.79229046152646
C        -0.05262182852686    1.12585034232757    1.60086275317752
C        -0.93712732069316   -0.06784937322325    1.23227952280006
C         0.49303181861692   -0.73478772465452    3.02008455944134
C         0.35448462987354    0.79228168344360    3.04287206374638
C        -0.77371727474005    0.67611906003310    4.08455412288782
C        -0.63474604004572   -0.85440387819846    4.06182230922527
H        -0.08386458071474   -2.14262132786666    1.39718537134537
H         2.09041364447357   -1.11526225243345    0.34805053518710
H         1.85024603758353    1.53276362612925    0.38759205688236
H        -0.47051673597872    2.12077059706603    1.46074346913639
H        -1.19992210645577   -0.07592358946558    0.17498773951654
H        -1.84151701331430   -0.15875738580744    1.82673942104347
H         1.44612337365165   -1.16304998806615    3.32935819973410
H         1.21575901461253    1.37565762569536    3.36735960587096
H        -1.73638274958674    1.06479425699335    3.75819435544187
H        -0.52676060419481    1.12558049001577    5.04433439740056
H        -1.51259836866678   -1.40033875910217    3.72179004283758
H        -0.30809740384200   -1.28002645691610    5.00856681580678

 Bond Distances (Angstroems)
 ---------------------------
C1-C2=1.5101         C1-C5=1.5307         C1-C6=1.5351         C1-H10=1.0882        C2-C1=1.5101         C2-C3=1.3270         
C2-H11=1.0746        C3-C2=1.3270         C3-C4=1.5101         C3-H12=1.0746        C4-C3=1.5101         C4-C5=1.5307         
C4-C7=1.5351         C4-H13=1.0882        C5-C1=1.5307         C5-C4=1.5307         C5-H14=1.0895        C5-H15=1.0861        
C6-C1=1.5351         C6-C7=1.5335         C6-C9=1.5399         C6-H16=1.0897        C7-C4=1.5351         C7-C6=1.5335         
C7-C8=1.5399         C7-H17=1.0897        C8-C7=1.5399         C8-C9=1.5370         C8-H18=1.0883        C8-H19=1.0882        
C9-C6=1.5399         C9-C8=1.5370         C9-H20=1.0883        C9-H21=1.0882        H10-C1=1.0882        H11-C2=1.0746        
H12-C3=1.0746        H13-C4=1.0882        H14-C5=1.0895        H15-C5=1.0861        H16-C6=1.0897        H17-C7=1.0897        
H18-C8=1.0883        H19-C8=1.0882        H20-C9=1.0883        H21-C9=1.0882        
 C  H  Rav=1.0861 sigma=0.0052  Rmin=1.0746  Rmax=1.0897    12
 C  C  Rav=1.5117 sigma=0.0593  Rmin=1.3270  Rmax=1.5399    11

 selected bond angles (degree)
 --------------------
C5-C1-C2= 99.95                C6-C1-C2=103.84                C6-C1-C5=102.12                H10-C1-C2=116.33               
H10-C1-C5=117.39               H10-C1-C6=114.93               C3-C2-C1=107.37                H11-C2-C1=124.18               
H11-C2-C3=128.30               C4-C3-C2=107.37                H12-C3-C2=128.31               H12-C3-C4=124.18               
C5-C4-C3= 99.95                C7-C4-C3=103.84                C7-C4-C5=102.12                H13-C4-C3=116.33               
H13-C4-C5=117.39               H13-C4-C7=114.93               C4-C5-C1= 93.43                H14-C5-C1=112.26               
H14-C5-C4=112.26               H15-C5-C1=114.50               H15-C5-C4=114.50               H15-C5-H14=109.25              
C7-C6-C1=103.08                C9-C6-C1=117.23                C9-C6-C7= 90.06                H16-C6-C1=111.90               
H16-C6-C7=117.79               H16-C6-C9=114.71               C6-C7-C4=103.08                C8-C7-C4=117.23                
C8-C7-C6= 90.06                H17-C7-C4=111.90               H17-C7-C6=117.78               H17-C7-C8=114.71               
C9-C8-C7= 89.94                H18-C8-C7=114.73               H18-C8-C9=115.54               H19-C8-C7=113.53               
H19-C8-C9=113.82               H19-C8-H18=108.53              C8-C9-C6= 89.94                H20-C9-C6=114.73               
H20-C9-C8=115.55               H21-C9-C6=113.52               H21-C9-C8=113.81               H21-C9-H20=108.53              

 selected dihedral angles (degree)
 ---------------------------------
C3-C2-C1-C5= 33.98            C3-C2-C1-C6=288.75            C3-C2-C1-H10=161.43           H11-C2-C1-C5=209.85           
H11-C2-C1-C6=104.61           H11-C2-C1-H10=337.29          C4-C3-C2-C1=  0.00            C4-C3-C2-H11=184.36           
H12-C3-C2-C1=175.64           H12-C3-C2-H11=  0.00          C5-C4-C3-C2=326.02            C5-C4-C3-H12=150.15           
C7-C4-C3-C2= 71.25            C7-C4-C3-H12=255.39           H13-C4-C3-C2=198.58           H13-C4-C3-H12= 22.71          
C4-C5-C1-C2=308.92            C4-C5-C1-C6= 55.55            C4-C5-C1-H10=182.19           H14-C5-C1-C2= 64.68           
H14-C5-C1-C6=171.30           H14-C5-C1-H10=297.95          H15-C5-C1-C2=189.99           H15-C5-C1-C6=296.61           
H15-C5-C1-H10= 63.26          C1-C5-C4-C3= 51.08            C1-C5-C4-C7=304.45            C1-C5-C4-H13=177.81           
H14-C5-C4-C3=295.32           H14-C5-C4-C7=188.69           H14-C5-C4-H13= 62.05          H15-C5-C4-C3=170.01           
H15-C5-C4-C7= 63.38           H15-C5-C4-H13=296.74          C7-C6-C1-C2= 68.11            C7-C6-C1-C5=324.52            
C7-C6-C1-H10=196.30           C9-C6-C1-C2=165.05            C9-C6-C1-C5= 61.47            C9-C6-C1-H10=293.24           
H16-C6-C1-C2=300.57           H16-C6-C1-C5=196.99           H16-C6-C1-H10= 68.76          C6-C7-C4-C3=291.90            
C6-C7-C4-C5= 35.48            C6-C7-C4-H13=163.71           C8-C7-C4-C3=194.95            C8-C7-C4-C5=298.54            
C8-C7-C4-H13= 66.76           H17-C7-C4-C3= 59.43           H17-C7-C4-C5=163.02           H17-C7-C4-H13=291.24          
C4-C7-C6-C1=  0.00            C4-C7-C6-C9=241.96            C4-C7-C6-H16=123.73           C8-C7-C6-C1=118.03            
C8-C7-C6-C9=  0.00            C8-C7-C6-H16=241.76           H17-C7-C6-C1=236.27           H17-C7-C6-C9=118.23           
H17-C7-C6-H16=  0.00          C9-C8-C7-C4=104.79            C9-C8-C7-C6=  0.00            C9-C8-C7-H17=239.10           
H18-C8-C7-C4=346.48           H18-C8-C7-C6=241.70           H18-C8-C7-H17=120.79          H19-C8-C7-C4=220.89           
H19-C8-C7-C6=116.11           H19-C8-C7-H17=355.20          C8-C9-C6-C1=255.22            C8-C9-C6-C7=  0.00            
C8-C9-C6-H16=120.91           H20-C9-C6-C1= 13.53           H20-C9-C6-C7=118.32           H20-C9-C6-H16=239.23          
H21-C9-C6-C1=139.13           H21-C9-C6-C7=243.91           H21-C9-C6-H16=  4.82          C6-C9-C8-C7=  0.00            
C6-C9-C8-H18=117.58           C6-C9-C8-H19=244.15           H20-C9-C8-C7=242.40           H20-C9-C8-H18=  0.00          
H20-C9-C8-H19=126.56          H21-C9-C8-C7=115.83           H21-C9-C8-H18=233.41          H21-C9-C8-H19=  0.00          
           -------------------------------------------------
          |                Final Singlepoint                |
           -------------------------------------------------

          ...................................................
          :                      SETUP                      :
          :.................................................:
          :  # basis functions                  48          :
          :  # atomic orbitals                  48          :
          :  # shells                           30          :
          :  # electrons                        48          :
          :  max. iterations                   250          :
          :  Hamiltonian                  GFN2-xTB          :
          :  restarted?                      false          :
          :  GBSA solvation                  false          :
          :  PC potential                    false          :
          :  electronic temp.          300.0000000     K    :
          :  accuracy                    1.0000000          :
          :  -> integral cutoff          0.2500000E+02      :
          :  -> integral neglect         0.1000000E-07      :
          :  -> SCF convergence          0.1000000E-05 Eh   :
          :  -> wf. convergence          0.1000000E-03 e    :
          :  Broyden damping             0.4000000          :
          ...................................................

 iter      E             dE          RMSdq      gap      omega  full diag
   1    -25.7549676 -0.257550E+02  0.447E-05    4.99       0.0  T
   2    -25.7549676 -0.254019E-11  0.270E-05    4.99     809.7  T
   3    -25.7549676  0.920153E-12  0.197E-05    4.99    1108.7  T

   *** convergence criteria satisfied after 3 iterations ***

         #    Occupation            Energy/Eh            Energy/eV
      -------------------------------------------------------------
         1        2.0000           -0.6551512             -17.8276
       ...           ...                  ...                  ...
        18        2.0000           -0.4413140             -12.0088
        19        2.0000           -0.4384778             -11.9316
        20        2.0000           -0.4331503             -11.7866
        21        2.0000           -0.4170974             -11.3498
        22        2.0000           -0.4108067             -11.1786
        23        2.0000           -0.4024538             -10.9513
        24        2.0000           -0.3824737             -10.4076 (HOMO)
        25                         -0.1990926              -5.4176 (LUMO)
        26                          0.0274364               0.7466
        27                          0.0330533               0.8994
        28                          0.0590661               1.6073
        29                          0.0722150               1.9651
       ...                                ...                  ...
        48                          0.6745449              18.3553
      -------------------------------------------------------------
                  HL-Gap            0.1833811 Eh            4.9901 eV
             Fermi-level           -0.2907831 Eh           -7.9126 eV

 SCC (total)                   0 d,  0 h,  0 min,  0.098 sec
 SCC setup                      ...        0 min,  0.000 sec (  0.503%)
 Dispersion                     ...        0 min,  0.000 sec (  0.397%)
 classical contributions        ...        0 min,  0.000 sec (  0.225%)
 integral evaluation            ...        0 min,  0.007 sec (  7.584%)
 iterations                     ...        0 min,  0.073 sec ( 74.421%)
 molecular gradient             ...        0 min,  0.015 sec ( 15.236%)
 printout                       ...        0 min,  0.001 sec (  1.025%)

         :::::::::::::::::::::::::::::::::::::::::::::::::::::
         ::                     SUMMARY                     ::
         :::::::::::::::::::::::::::::::::::::::::::::::::::::
         :: total energy             -25.362125073836 Eh    ::
         :: gradient norm              0.000380519493 Eh/a0 ::
         :: HOMO-LUMO gap              4.990054443382 eV    ::
         ::.................................................::
         :: SCC energy               -25.754967607858 Eh    ::
         :: -> isotropic ES            0.002298628758 Eh    ::
         :: -> anisotropic ES          0.004238634493 Eh    ::
         :: -> anisotropic XC          0.015116018526 Eh    ::
         :: -> dispersion             -0.017715433697 Eh    ::
         :: repulsion energy           0.392740357840 Eh    ::
         :: add. restraining           0.000029928853 Eh    ::
         :: total charge               0.000000000000 e     ::
         :::::::::::::::::::::::::::::::::::::::::::::::::::::

           -------------------------------------------------
          |                Property Printout                |
           -------------------------------------------------

    * Orbital Energies and Occupations

         #    Occupation            Energy/Eh            Energy/eV
      -------------------------------------------------------------
         1        2.0000           -0.6551512             -17.8276
       ...           ...                  ...                  ...
        12        2.0000           -0.5107654             -13.8986
        13        2.0000           -0.4832964             -13.1512
        14        2.0000           -0.4749598             -12.9243
        15        2.0000           -0.4624788             -12.5847
        16        2.0000           -0.4532732             -12.3342
        17        2.0000           -0.4508112             -12.2672
        18        2.0000           -0.4413140             -12.0088
        19        2.0000           -0.4384778             -11.9316
        20        2.0000           -0.4331503             -11.7866
        21        2.0000           -0.4170974             -11.3498
        22        2.0000           -0.4108067             -11.1786
        23        2.0000           -0.4024538             -10.9513
        24        2.0000           -0.3824737             -10.4076 (HOMO)
        25                         -0.1990926              -5.4176 (LUMO)
        26                          0.0274364               0.7466
        27                          0.0330533               0.8994
        28                          0.0590661               1.6073
        29                          0.0722150               1.9651
        30                          0.0902405               2.4556
        31                          0.0913848               2.4867
        32                          0.1137069               3.0941
        33                          0.1217268               3.3124
        34                          0.1295290               3.5247
        35                          0.1428558               3.8873
       ...                                ...                  ...
        48                          0.6745449              18.3553
      -------------------------------------------------------------
                  HL-Gap            0.1833811 Eh            4.9901 eV
             Fermi-level           -0.2907831 Eh           -7.9126 eV

     #   Z          covCN         q      C6AA      α(0)
     1   6 C        4.039    -0.017    20.796     6.478
     2   6 C        3.002    -0.043    29.044     8.840
     3   6 C        3.002    -0.043    29.044     8.840
     4   6 C        4.038    -0.017    20.796     6.478
     5   6 C        3.919    -0.060    21.580     6.602
     6   6 C        4.074    -0.020    20.846     6.485
     7   6 C        4.074    -0.020    20.846     6.485
     8   6 C        3.972    -0.060    21.569     6.599
     9   6 C        3.972    -0.060    21.569     6.599
    10   1 H        0.925     0.025     2.661     2.551
    11   1 H        0.926     0.026     2.639     2.541
    12   1 H        0.926     0.026     2.639     2.541
    13   1 H        0.925     0.025     2.661     2.551
    14   1 H        0.925     0.030     2.585     2.514
    15   1 H        0.925     0.039     2.467     2.456
    16   1 H        0.925     0.021     2.711     2.575
    17   1 H        0.925     0.021     2.711     2.575
    18   1 H        0.925     0.032     2.553     2.499
    19   1 H        0.925     0.029     2.594     2.518
    20   1 H        0.925     0.032     2.553     2.499
    21   1 H        0.925     0.029     2.594     2.518

 Mol. C6AA /au·bohr⁶  :       3876.826288
 Mol. C8AA /au·bohr⁸  :      88834.696832
 Mol. α(0) /au        :         93.744515


Wiberg/Mayer (AO) data.
largest (>0.10) Wiberg bond orders for each atom

 ---------------------------------------------------------------------------
     #   Z sym  total        # sym  WBO       # sym  WBO       # sym  WBO
 ---------------------------------------------------------------------------
     1   6 C    3.993 --     2 C    1.006     5 C    0.989    10 H    0.971
                             6 C    0.965
     2   6 C    3.986 --     3 C    1.919     1 C    1.006    11 H    0.972
     3   6 C    3.986 --     2 C    1.919     4 C    1.006    12 H    0.972
     4   6 C    3.993 --     3 C    1.006     5 C    0.989    13 H    0.971
                             7 C    0.965
     5   6 C    3.995 --     1 C    0.989     4 C    0.989    14 H    0.979
                            15 H    0.973
     6   6 C    3.988 --     9 C    0.988     7 C    0.988    16 H    0.975
                             1 C    0.965
     7   6 C    3.988 --     8 C    0.988     6 C    0.988    17 H    0.975
                             4 C    0.965
     8   6 C    3.993 --     9 C    1.007     7 C    0.988    19 H    0.982
                            18 H    0.979
     9   6 C    3.993 --     8 C    1.007     6 C    0.988    21 H    0.982
                            20 H    0.979
    10   1 H    0.999 --     1 C    0.971
    11   1 H    0.999 --     2 C    0.972
    12   1 H    0.999 --     3 C    0.972
    13   1 H    0.999 --     4 C    0.971
    14   1 H    0.999 --     5 C    0.979
    15   1 H    0.999 --     5 C    0.973
    16   1 H    1.000 --     6 C    0.975
    17   1 H    1.000 --     7 C    0.975
    18   1 H    0.999 --     8 C    0.979
    19   1 H    0.999 --     8 C    0.982
    20   1 H    0.999 --     9 C    0.979
    21   1 H    0.999 --     9 C    0.982
 ---------------------------------------------------------------------------

Topologies differ in total number of bonds
Writing topology from bond orders to xtbtopo.mol

molecular dipole:
                 x           y           z       tot (Debye)
 q only:       -0.141      -0.014       0.092
   full:       -0.085      -0.010       0.137       0.411
molecular quadrupole (traceless):
                xx          xy          yy          xz          yz          zz
 q only:       -0.288      -0.005      -0.240      -0.911      -0.085       0.528
  q+dip:        0.097      -0.008       0.142      -0.325      -0.010      -0.238
   full:       -0.087       0.020      -0.360      -0.237      -0.020       0.447

           -------------------------------------------------
          |                Geometry Summary                 |
           -------------------------------------------------

      molecular mass/u    :      120.1919121
   center of mass at/Å    :        0.0986033       0.0106569       2.2662049
  moments of inertia/u·Å² :        0.1480499E+03   0.2903559E+03   0.3239376E+03
rotational constants/cm⁻¹ :        0.1138645E+00   0.5805852E-01   0.5203974E-01

 * 21 selected distances

     #   Z          #   Z                                           value/Å
     2   6 C        3   6 C                                       1.3269713
     1   6 C        5   6 C                                       1.5307218
     4   6 C        5   6 C                                       1.5307262
     1   6 C        6   6 C                                       1.5350571
     4   6 C        7   6 C                                       1.5350552
     6   6 C        7   6 C                                       1.5335109
     7   6 C        8   6 C                                       1.5399464 (max)
     6   6 C        9   6 C                                       1.5399378
     8   6 C        9   6 C                                       1.5369874
     1   6 C       10   1 H                                       1.0881818
     2   6 C       11   1 H                                       1.0746344 (min)
     3   6 C       12   1 H                                       1.0746421
     4   6 C       13   1 H                                       1.0881801
     5   6 C       14   1 H                                       1.0894917
     5   6 C       15   1 H                                       1.0860790
     6   6 C       16   1 H                                       1.0896982
     7   6 C       17   1 H                                       1.0896849
     8   6 C       18   1 H                                       1.0882573
     8   6 C       19   1 H                                       1.0882010
     9   6 C       20   1 H                                       1.0882516
     9   6 C       21   1 H                                       1.0881999

 * 2 distinct bonds (by element types)

   Z      Z             #   av. dist./Å        max./Å        min./Å
   1 H    6 C          12     1.0861252     1.0896982     1.0746344
   6 C    6 C           9     1.5121016     1.5399464     1.3269713


optimized geometry written to: xtbopt.xyz


           -------------------------------------------------
          | TOTAL ENERGY              -25.362125073836 Eh   |
          | GRADIENT NORM               0.000380519493 Eh/α |
          | HOMO-LUMO GAP               4.990054443382 eV   |
           -------------------------------------------------

------------------------------------------------------------------------
 * finished run on 2022/09/06 at 17:46:06.247     
------------------------------------------------------------------------
 total:
 * wall-time:     0 d,  0 h,  0 min,  2.358 sec
 *  cpu-time:     0 d,  0 h,  0 min, 49.333 sec
 * ratio c/w:    20.922 speedup
 SCF:
 * wall-time:     0 d,  0 h,  0 min,  0.373 sec
 *  cpu-time:     0 d,  0 h,  0 min,  6.290 sec
 * ratio c/w:    16.869 speedup
 ANC optimizer:
 * wall-time:     0 d,  0 h,  0 min,  1.733 sec
 *  cpu-time:     0 d,  0 h,  0 min, 40.067 sec
 * ratio c/w:    23.115 speedup

