      -----------------------------------------------------------      
     |                   =====================                   |     
     |                           x T B                           |     
     |                   =====================                   |     
     |                         S. Grimme                         |     
     |          Mulliken Center for Theoretical Chemistry        |     
     |                    University of Bonn                     |     
      -----------------------------------------------------------      

   * xtb version 6.3.3 (7355c4f) compiled by 'conda@14e9545d6667' on 2020-09-17

   xtb is free software: you can redistribute it and/or modify it under
   the terms of the GNU Lesser General Public License as published by
   the Free Software Foundation, either version 3 of the License, or
   (at your option) any later version.
   
   xtb is distributed in the hope that it will be useful,
   but WITHOUT ANY WARRANTY; without even the implied warranty of
   MERCHANTABILITY or FITNESS FOR A PARTICULAR PURPOSE.  See the
   GNU Lesser General Public License for more details.
   
   Cite this work as:
   * C. Bannwarth, E. Caldeweyher, S. Ehlert, A. Hansen, P. Pracht,
     J. Seibert, S. Spicher, S. Grimme, WIREs Comput. Mol. Sci., 2020,
     e01493. DOI: 10.1002/wcms.1493
   
   for GFN2-xTB:
   * S. Grimme, C. Bannwarth, P. Shushkov, J. Chem. Theory Comput., 2017,
     13, 1989-2009. DOI: 10.1021/acs.jctc.7b00118
   for GFN1-xTB:
   * C. Bannwarth, S. Ehlert and S. Grimme., J. Chem. Theory Comput., 2019,
     15, 1652-1671. DOI: 10.1021/acs.jctc.8b01176
   for GFN0-xTB:
   * P. Pracht, E. Caldeweyher, S. Ehlert, S. Grimme, ChemRxiv, 2019, preprint.
     DOI: 10.26434/chemrxiv.8326202.v1
   for GFN-FF:
   * S. Spicher and S. Grimme, Angew. Chem. Int. Ed., 2020, 59, 15665-15673.
     DOI: 10.1002/anie.202004239
   
   for DFT-D4:
   * E. Caldeweyher, C. Bannwarth and S. Grimme, J. Chem. Phys., 2017,
     147, 034112. DOI: 10.1063/1.4993215
   * E. Caldeweyher, S. Ehlert, A. Hansen, H. Neugebauer, S. Spicher,
     C. Bannwarth and S. Grimme, J. Chem. Phys., 2019, 150, 154122.
     DOI: 10.1063/1.5090222
   * E. Caldeweyher, J.-M. Mewes, S. Ehlert and S. Grimme, Phys. Chem. Chem. Phys.
     2020, 22, 8499-8512. DOI: 10.1039/D0CP00502A
   
   for sTDA-xTB:
   * S. Grimme and C. Bannwarth, J. Chem. Phys., 2016, 145, 054103.
     DOI: 10.1063/1.4959605
   
   in the mass-spec context:
   * V. Asgeirsson, C. Bauer and S. Grimme, Chem. Sci., 2017, 8, 4879.
     DOI: 10.1039/c7sc00601b
   * J. Koopman and S. Grimme, ACS Omega 2019, 4, 12, 15120-15133.
     DOI: 10.1021/acsomega.9b02011
   
   for metadynamics refer to:
   * S. Grimme, J. Chem. Theory Comput., 2019, 155, 2847-2862
     DOI: 10.1021/acs.jctc.9b00143
   
   with help from (in alphabetical order)
   C. Bannwarth, F. Bohle, G. Brandenburg, E. Caldeweyher, M. Checinski,
   S. Dohm, S. Ehlert, S. Ehrlich, F. März, H. Neugebauer, J. Pisarek,
   P. Pracht, P. Shushkov, and S. Spicher.
   
 * started run on 2022/09/06 at 17:45:51.099     

           -------------------------------------------------
          |                Calculation Setup                |
           -------------------------------------------------

          program call               : xtb /home/svss/Project-DBcg-Debug/aqme2_20220329/20220906-example-end-to-end/End-to-end_Workflows/End-to-end workflow 2, SN2 PES/AQME inputs/CSEARCH/crest_xyz/TS2_crest/TS2_crest.xyz --opt --input constrain1.inp -c 0 --uhf 0 -P 8
          hostname                   : fireball.chem.colostate.edu
          coordinate file            : /home/svss/Project-DBcg-Debug/aqme2_20220329/20220906-example-end-to-end/End-to-end_Workflows/End-to-end workflow 2, SN2 PES/AQME inputs/CSEARCH/crest_xyz/TS2_crest/TS2_crest.xyz
          omp threads                :                     8
          number of atoms            :                    21
          number of electrons        :                    48
          charge                     :                     0
          spin                       :                   0.0
          first test random number   :      0.45346964716194

   ID    Z sym.   atoms
    1    6 C      1-9
    2    1 H      10-21
constraining bond 4 6 to    2.4000000 Å, actual value:    5.3593317 Å
constraining bond 1 7 to    2.4000000 Å, actual value:    5.5473695 Å
constraining bond 1 2 to    1.3210000 Å, actual value:    1.3206555 Å
constraining bond 2 3 to    1.4510000 Å, actual value:    1.4511845 Å
constraining bond 3 4 to    1.3240000 Å, actual value:    1.3236961 Å
constraining bond 4 5 to    1.4950000 Å, actual value:    1.4946407 Å
constraining bond 5 1 to    1.4940000 Å, actual value:    1.4937654 Å
constraining bond 6 7 to    1.3890000 Å, actual value:    1.3885047 Å
constraining bond 7 8 to    1.4920000 Å, actual value:    1.4918217 Å
constraining bond 8 9 to    1.4380000 Å, actual value:    1.4381738 Å
constraining bond 9 6 to    1.4910000 Å, actual value:    1.4905526 Å
constraining bond 1 10 to    1.0840000 Å, actual value:    1.0836421 Å
constraining bond 2 11 to    1.0800000 Å, actual value:    1.0804929 Å
constraining bond 3 12 to    1.0820000 Å, actual value:    1.0816885 Å
constraining bond 4 13 to    1.0840000 Å, actual value:    1.0841736 Å
constraining bond 5 14 to    1.1070000 Å, actual value:    1.1071322 Å
constraining bond 5 15 to    1.1080000 Å, actual value:    1.1079134 Å
constraining bond 6 16 to    1.0830000 Å, actual value:    1.0830174 Å
constraining bond 7 17 to    1.0800000 Å, actual value:    1.0797783 Å
constraining bond 8 18 to    1.1130000 Å, actual value:    1.1125713 Å
constraining bond 8 19 to    1.1140000 Å, actual value:    1.1135013 Å
constraining bond 9 20 to    1.1110000 Å, actual value:    1.1114676 Å
constraining bond 9 21 to    1.1130000 Å, actual value:    1.1131719 Å

molecular fragmentation (1/2 indicates fragments):
111112222111111222222
# atoms in fragment 1/2:    11    10
 fragment masses (1/2) :       66.10       54.09
CMA distance (Bohr)    :   9.468
constraining FC (au)   :  0.5000
########################################################################
[WARNING] Please study the warnings concerning your input carefully
-1- prog_main_parseArguments: Process number higher than OMP_NUM_THREADS, I hope you know what you are doing.
########################################################################

           -------------------------------------------------
          |                 G F N 2 - x T B                 |
           -------------------------------------------------

        Reference                      10.1021/acs.jctc.8b01176
      * Hamiltonian:
        H0-scaling (s, p, d)           1.850000    2.230000    2.230000
        zeta-weighting                 0.500000
      * Dispersion:
        s8                             2.700000
        a1                             0.520000
        a2                             5.000000
        s9                             5.000000
      * Repulsion:
        kExp                           1.500000    1.000000
        rExp                           1.000000
      * Coulomb:
        alpha                          2.000000
        third order                    shell-resolved
        anisotropic                    true
        a3                             3.000000
        a5                             4.000000
        cn-shift                       1.200000
        cn-exp                         4.000000
        max-rad                        5.000000


          ...................................................
          :                      SETUP                      :
          :.................................................:
          :  # basis functions                  48          :
          :  # atomic orbitals                  48          :
          :  # shells                           30          :
          :  # electrons                        48          :
          :  max. iterations                   250          :
          :  Hamiltonian                  GFN2-xTB          :
          :  restarted?                      false          :
          :  GBSA solvation                  false          :
          :  PC potential                    false          :
          :  electronic temp.          300.0000000     K    :
          :  accuracy                    1.0000000          :
          :  -> integral cutoff          0.2500000E+02      :
          :  -> integral neglect         0.1000000E-07      :
          :  -> SCF convergence          0.1000000E-05 Eh   :
          :  -> wf. convergence          0.1000000E-03 e    :
          :  Broyden damping             0.4000000          :
          ...................................................

 iter      E             dE          RMSdq      gap      omega  full diag
   1    -25.6680716 -0.256681E+02  0.413E+00    3.95       0.0  T
   2    -25.7026567 -0.345850E-01  0.243E+00    3.99       1.0  T
   3    -25.7020839  0.572784E-03  0.680E-01    3.99       1.0  T
   4    -25.7023578 -0.273920E-03  0.317E-01    3.98       1.0  T
   5    -25.7039918 -0.163403E-02  0.723E-02    3.97       1.0  T
   6    -25.7040337 -0.419177E-04  0.382E-02    3.97       1.0  T
   7    -25.7040274  0.637654E-05  0.292E-02    3.97       1.0  T
   8    -25.7040399 -0.125523E-04  0.182E-03    3.97      12.0  T
   9    -25.7040399 -0.746871E-08  0.845E-04    3.97      25.8  T
  10    -25.7040399 -0.179219E-08  0.511E-04    3.97      42.7  T

   *** convergence criteria satisfied after 10 iterations ***

         #    Occupation            Energy/Eh            Energy/eV
      -------------------------------------------------------------
         1        2.0000           -0.6474104             -17.6169
       ...           ...                  ...                  ...
        18        2.0000           -0.4427266             -12.0472
        19        2.0000           -0.4358634             -11.8604
        20        2.0000           -0.4277492             -11.6396
        21        2.0000           -0.4259531             -11.5908
        22        2.0000           -0.4127514             -11.2315
        23        2.0000           -0.3803269             -10.3492
        24        2.0000           -0.3750253             -10.2050 (HOMO)
        25                         -0.2290865              -6.2338 (LUMO)
        26                         -0.2122755              -5.7763
        27                         -0.1362345              -3.7071
        28                          0.0658782               1.7926
        29                          0.0929957               2.5305
       ...                                ...                  ...
        48                          0.7365245              20.0419
      -------------------------------------------------------------
                  HL-Gap            0.1459388 Eh            3.9712 eV
             Fermi-level           -0.3020559 Eh           -8.2194 eV

 SCC (total)                   0 d,  0 h,  0 min,  0.409 sec
 SCC setup                      ...        0 min,  0.002 sec (  0.542%)
 Dispersion                     ...        0 min,  0.002 sec (  0.370%)
 classical contributions        ...        0 min,  0.000 sec (  0.038%)
 integral evaluation            ...        0 min,  0.012 sec (  3.000%)
 iterations                     ...        0 min,  0.365 sec ( 89.310%)
 molecular gradient             ...        0 min,  0.025 sec (  6.134%)
 printout                       ...        0 min,  0.001 sec (  0.279%)

         :::::::::::::::::::::::::::::::::::::::::::::::::::::
         ::                     SUMMARY                     ::
         :::::::::::::::::::::::::::::::::::::::::::::::::::::
         :: total energy               8.067471997273 Eh    ::
         :: gradient norm             11.554795886528 Eh/a0 ::
         :: HOMO-LUMO gap              3.971197744458 eV    ::
         ::.................................................::
         :: SCC energy               -25.704039922116 Eh    ::
         :: -> isotropic ES            0.003302082588 Eh    ::
         :: -> anisotropic ES          0.005457927531 Eh    ::
         :: -> anisotropic XC          0.020748977566 Eh    ::
         :: -> dispersion             -0.011950975169 Eh    ::
         :: repulsion energy           0.446871160786 Eh    ::
         :: add. restraining          33.324422083743 Eh    ::
         :: total charge              -0.000000000000 e     ::
         :::::::::::::::::::::::::::::::::::::::::::::::::::::

      ----------------------------------------------------------- 
     |                   =====================                   |
     |                        A N C O P T                        |
     |                   =====================                   |
     |               Approximate Normal Coordinate               |
     |                Rational Function Optimizer                |
      ----------------------------------------------------------- 

          ...................................................
          :                      SETUP                      :
          :.................................................:
          :   optimization level            normal          :
          :   max. optcycles                   200          :
          :   ANC micro-cycles                  20          :
          :   degrees of freedom                57          :
          :.................................................:
          :   RF solver                   davidson          :
          :   write xtbopt.log                true          :
          :   linear?                        false          :
          :   energy convergence         0.5000000E-05 Eh   :
          :   grad. convergence          0.1000000E-02 Eh/α :
          :   maximium RF displ.         1.0000000          :
          :   Hlow (freq-cutoff)         0.1000000E-01      :
          :   Hmax (freq-cutoff)         5.0000000          :
          :   S6 in model hess.         20.0000000          :
          ...................................................

generating ANC from model Hessian ...
Using Lindh-Hessian (1995)
 Shifting diagonal of input Hessian by    9.6450812165396298E-003
 Lowest  eigenvalues of input Hessian
    0.000000    0.000000    0.000000    0.000000    0.000000    0.000000
    0.010000    0.010054    0.012168    0.019654    0.024738    0.025886
    0.027313    0.030428    0.038778    0.044168    0.059344    0.060317
 Highest eigenvalues
    4.485588    4.555834    4.657514    4.795940    5.221263    5.751796


........................................................................
.............................. CYCLE    1 ..............................
........................................................................
   1    -25.7040399 -0.257040E+02  0.983E-05    3.97       0.0  T
   2    -25.7040399 -0.135536E-10  0.612E-05    3.97     356.5  T
   3    -25.7040399 -0.229505E-11  0.408E-05    3.97     535.3  T
     SCC iter.                  ...        0 min,  0.085 sec
     gradient                   ...        0 min,  0.006 sec
 * total energy  :     8.0674720 Eh     change       -0.2330452E-08 Eh
   gradient norm :    11.5547961 Eh/α   predicted     0.0000000E+00 (-100.00%)
   displ. norm   :     0.9037204 α      lambda       -0.1040984E+02
   maximum displ.:     0.7368849 α      in ANC's #41, #42, #56, ...

........................................................................
.............................. CYCLE    2 ..............................
........................................................................
   1    -25.6727037 -0.256727E+02  0.112E+00    3.89       0.0  T
   2    -25.6736668 -0.963062E-03  0.657E-01    3.90       1.0  T
   3    -25.6732416  0.425243E-03  0.211E-01    3.89       1.0  T
   4    -25.6737044 -0.462838E-03  0.740E-02    3.89       1.0  T
   5    -25.6737852 -0.807855E-04  0.138E-02    3.89       1.6  T
   6    -25.6737857 -0.541195E-06  0.608E-03    3.89       3.6  T
   7    -25.6737857  0.203519E-07  0.324E-03    3.89       6.7  T
   8    -25.6737858 -0.138471E-06  0.661E-04    3.89      33.0  T
   9    -25.6737858 -0.491195E-09  0.153E-04    3.89     142.6  T
     SCC iter.                  ...        0 min,  0.286 sec
     gradient                   ...        0 min,  0.018 sec
 * total energy  :    -1.3574313 Eh     change       -0.9424903E+01 Eh
   gradient norm :     9.3188486 Eh/α   predicted    -0.9455857E+01 (   0.33%)
   displ. norm   :     0.8877883 α      lambda       -0.8240118E+01
   maximum displ.:     0.7445961 α      in ANC's #41, #42, #56, ...

........................................................................
.............................. CYCLE    3 ..............................
........................................................................
   1    -25.4873679 -0.254874E+02  0.138E+00    2.87       0.0  T
   2    -25.4885403 -0.117242E-02  0.787E-01    2.79       1.0  T
   3    -25.4848858  0.365446E-02  0.595E-01    2.76       1.0  T
   4    -25.4897655 -0.487963E-02  0.978E-02    2.77       1.0  T
   5    -25.4899091 -0.143614E-03  0.221E-02    2.76       1.0  T
   6    -25.4899100 -0.920803E-06  0.119E-02    2.77       1.8  T
   7    -25.4899107 -0.727021E-06  0.665E-03    2.77       3.3  T
   8    -25.4899113 -0.531518E-06  0.133E-03    2.77      16.4  T
   9    -25.4899113 -0.146704E-08  0.659E-04    2.77      33.1  T
  10    -25.4899113 -0.205347E-08  0.238E-04    2.77      91.7  T
     SCC iter.                  ...        0 min,  0.239 sec
     gradient                   ...        0 min,  0.006 sec
 * total energy  :    -8.6723607 Eh     change       -0.7314929E+01 Eh
   gradient norm :     7.1733345 Eh/α   predicted    -0.7367359E+01 (   0.72%)
   displ. norm   :     0.8633108 α      lambda       -0.6152876E+01
   maximum displ.:     0.7237213 α      in ANC's #41, #42, #56, ...

........................................................................
.............................. CYCLE    4 ..............................
........................................................................
   1    -25.2170975 -0.252171E+02  0.147E+00    1.20       0.0  T
   2    -25.2146864  0.241110E-02  0.900E-01    0.97       1.0  T
   3    -25.2102570  0.442940E-02  0.925E-01    0.99       1.0  T
   4    -25.2225221 -0.122651E-01  0.183E-01    0.98       1.0  T
   5    -25.2230322 -0.510136E-03  0.687E-02    0.95       1.0  T
   6    -25.2230819 -0.497250E-04  0.396E-02    0.95       1.0  T
   7    -25.2231034 -0.214614E-04  0.121E-02    0.95       1.8  T
   8    -25.2231037 -0.278299E-06  0.548E-03    0.95       4.0  T
   9    -25.2231040 -0.350890E-06  0.211E-03    0.95      10.3  T
  10    -25.2231040 -0.143282E-07  0.612E-04    0.95      35.7  T
  11    -25.2231040 -0.413883E-08  0.164E-04    0.95     133.4  T
     SCC iter.                  ...        0 min,  0.250 sec
     gradient                   ...        0 min,  0.032 sec
 * total energy  :   -13.9899411 Eh     change       -0.5317580E+01 Eh
   gradient norm :     5.1743865 Eh/α   predicted    -0.5369328E+01 (   0.97%)
   displ. norm   :     0.8383920 α      lambda       -0.4269030E+01
   maximum displ.:     0.6622026 α      in ANC's #41, #42, #8, ...

........................................................................
.............................. CYCLE    5 ..............................
........................................................................
   1    -24.3856916 -0.243857E+02  0.382E+00    0.13       0.0  T
   2    -20.6871308  0.369856E+01  0.749E+00    0.50       1.0  T
   3    -24.8862591 -0.419913E+01  0.226E+00    0.35       1.0  T
   4    -24.8930073 -0.674816E-02  0.245E+00    0.19       1.0  T
   5    -24.9701016 -0.770943E-01  0.107E+00    0.14       1.0  T
   6    -24.9644846  0.561701E-02  0.979E-01    0.06       1.0  T
   7    -24.9674839 -0.299929E-02  0.785E-01    0.14       1.0  T
   8    -24.8036342  0.163850E+00  0.183E+00    0.02       1.0  T
   9    -24.9720216 -0.168387E+00  0.383E-01    0.09       1.0  T
  10    -24.9728351 -0.813525E-03  0.276E-01    0.09       1.0  T
  11    -24.9718639  0.971157E-03  0.257E-01    0.08       1.0  T
  12    -24.9743684 -0.250452E-02  0.774E-02    0.09       1.0  T
  13    -24.9744262 -0.577956E-04  0.483E-02    0.09       1.0  T
  14    -24.9745514 -0.125156E-03  0.828E-03    0.10       2.6  T
  15    -24.9745522 -0.760847E-06  0.758E-03    0.10       2.9  T
  16    -24.9745546 -0.240262E-05  0.651E-03    0.10       3.4  T
  17    -24.9745459  0.863536E-05  0.135E-02    0.10       1.6  T
  18    -24.9745554 -0.948257E-05  0.289E-03    0.10       7.6  T
  19    -24.9745558 -0.410379E-06  0.498E-04    0.10      43.8  T
  20    -24.9745558 -0.110529E-07  0.716E-05    0.10     305.0  T
     SCC iter.                  ...        0 min,  0.578 sec
     gradient                   ...        0 min,  0.007 sec
 * total energy  :   -17.6056679 Eh     change       -0.3615727E+01 Eh
   gradient norm :     3.5510329 Eh/α   predicted    -0.3634879E+01 (   0.53%)
   displ. norm   :     0.8382001 α      lambda       -0.2879101E+01
   maximum displ.:     0.5582342 α      in ANC's #41, #42, #8, ...

........................................................................
.............................. CYCLE    6 ..............................
........................................................................
   1    -24.7629143 -0.247629E+02  0.286E+00    0.38       0.0  T
   2    -24.5261302  0.236784E+00  0.346E+00    0.14       1.0  T
   3    -24.5731826 -0.470524E-01  0.243E+00    0.03       1.0  T
   4    -24.7690175 -0.195835E+00  0.190E+00    0.17       1.0  T
   5    -24.8175451 -0.485276E-01  0.127E+00    0.28       1.0  T
   6    -24.8220885 -0.454344E-02  0.938E-01    0.18       1.0  T
   7    -24.8283584 -0.626982E-02  0.692E-01    0.13       1.0  T
   8    -24.8263956  0.196279E-02  0.738E-01    0.15       1.0  T
   9    -24.8370218 -0.106262E-01  0.163E-01    0.08       1.0  T
  10    -24.8376328 -0.611064E-03  0.101E-01    0.08       1.0  T
  11    -24.8372950  0.337806E-03  0.108E-01    0.07       1.0  T
  12    -24.8373184 -0.233597E-04  0.140E-01    0.08       1.0  T
  13    -24.8374231 -0.104759E-03  0.105E-01    0.09       1.0  T
  14    -24.8377964 -0.373295E-03  0.286E-02    0.08       1.0  T
  15    -24.8378045 -0.806112E-05  0.176E-02    0.08       1.2  T
  16    -24.8378142 -0.966576E-05  0.126E-02    0.08       1.7  T
  17    -24.8378157 -0.148000E-05  0.601E-03    0.08       3.6  T
  18    -24.8378164 -0.764627E-06  0.360E-03    0.08       6.1  T
  19    -24.8378170 -0.537919E-06  0.731E-04    0.08      29.8  T
  20    -24.8378170  0.323491E-08  0.555E-04    0.08      39.3  T
     SCC iter.                  ...        0 min,  0.441 sec
     gradient                   ...        0 min,  0.008 sec
 * total energy  :   -20.0649149 Eh     change       -0.2459247E+01 Eh
   gradient norm :     2.4281367 Eh/α   predicted    -0.2450951E+01 (  -0.34%)
   displ. norm   :     0.8608778 α      lambda       -0.2009519E+01
   maximum displ.:     0.4312261 α      in ANC's #41, #8, #35, ...

........................................................................
.............................. CYCLE    7 ..............................
........................................................................
   1    -24.7719915 -0.247720E+02  0.200E+00    0.47       0.0  T
   2    -24.5428274  0.229164E+00  0.227E+00    0.01       1.0  T
   3    -23.8421648  0.700663E+00  0.418E+00    0.64       1.0  T
   4    -24.7749101 -0.932745E+00  0.126E+00    0.37       1.0  T
   5    -24.7903363 -0.154262E-01  0.104E+00    0.37       1.0  T
   6    -24.7962602 -0.592386E-02  0.738E-01    0.42       1.0  T
   7    -24.7981941 -0.193387E-02  0.609E-01    0.41       1.0  T
   8    -24.8016111 -0.341705E-02  0.319E-01    0.14       1.0  T
   9    -24.7940153  0.759580E-02  0.381E-01    0.09       1.0  T
  10    -24.8009313 -0.691601E-02  0.414E-01    0.27       1.0  T
  11    -24.8023102 -0.137887E-02  0.305E-01    0.20       1.0  T
  12    -24.8026955 -0.385349E-03  0.170E-01    0.14       1.0  T
  13    -24.8031003 -0.404718E-03  0.149E-01    0.15       1.0  T
  14    -24.8032902 -0.189893E-03  0.140E-01    0.16       1.0  T
  15    -24.8033100 -0.198373E-04  0.773E-02    0.15       1.0  T
  16    -24.8033791 -0.691114E-04  0.442E-02    0.15       1.0  T
  17    -24.8034830 -0.103933E-03  0.212E-02    0.17       1.0  T
  18    -24.8034968 -0.137910E-04  0.782E-03    0.16       2.8  T
  19    -24.8034983 -0.146525E-05  0.730E-04    0.16      29.9  T
  20    -24.8034982  0.484234E-07  0.103E-03    0.16      21.1  T
  21    -24.8034983 -0.541872E-07  0.665E-04    0.16      32.8  T
  22    -24.8034983 -0.833576E-08  0.182E-04    0.16     120.0  T
     SCC iter.                  ...        0 min,  0.496 sec
     gradient                   ...        0 min,  0.007 sec
 * total energy  :   -21.8013114 Eh     change       -0.1736396E+01 Eh
   gradient norm :     1.7139984 Eh/α   predicted    -0.1749398E+01 (   0.75%)
   displ. norm   :     0.8585449 α      lambda       -0.1429596E+01
   maximum displ.:     0.3854419 α      in ANC's #8, #41, #17, ...

........................................................................
.............................. CYCLE    8 ..............................
........................................................................
   1    -24.8168852 -0.248169E+02  0.143E+00    0.63       0.0  T
   2    -24.7886334  0.282518E-01  0.127E+00    0.77       1.0  T
   3    -24.8212524 -0.326190E-01  0.968E-01    0.59       1.0  T
   4    -24.8312313 -0.997884E-02  0.456E-01    0.68       1.0  T
   5    -24.8345456 -0.331431E-02  0.117E-01    0.65       1.0  T
   6    -24.8346799 -0.134274E-03  0.652E-02    0.65       1.0  T
   7    -24.8346967 -0.168163E-04  0.511E-02    0.65       1.0  T
   8    -24.8347349 -0.382008E-04  0.152E-02    0.65       1.4  T
   9    -24.8347380 -0.315950E-05  0.620E-03    0.65       3.5  T
  10    -24.8347383 -0.258488E-06  0.294E-03    0.65       7.4  T
  11    -24.8347385 -0.149624E-06  0.692E-04    0.65      31.5  T
  12    -24.8347385 -0.182767E-08  0.340E-04    0.65      64.2  T
     SCC iter.                  ...        0 min,  0.324 sec
     gradient                   ...        0 min,  0.018 sec
 * total energy  :   -23.0235601 Eh     change       -0.1222249E+01 Eh
   gradient norm :     1.2090176 Eh/α   predicted    -0.1241676E+01 (   1.59%)
   displ. norm   :     0.8086245 α      lambda       -0.9588209E+00
   maximum displ.:     0.3414450 α      in ANC's #8, #41, #36, ...

........................................................................
.............................. CYCLE    9 ..............................
........................................................................
   1    -24.8591321 -0.248591E+02  0.633E-01    0.96       0.0  T
   2    -24.8563744  0.275768E-02  0.534E-01    1.05       1.0  T
   3    -24.8602192 -0.384472E-02  0.372E-01    0.96       1.0  T
   4    -24.8615789 -0.135978E-02  0.177E-01    1.01       1.0  T
   5    -24.8620734 -0.494422E-03  0.566E-02    1.00       1.0  T
   6    -24.8621249 -0.515390E-04  0.264E-02    1.00       1.0  T
   7    -24.8621373 -0.124258E-04  0.113E-02    1.00       1.9  T
   8    -24.8621387 -0.133411E-05  0.522E-03    1.00       4.2  T
   9    -24.8621389 -0.215183E-06  0.252E-03    1.00       8.7  T
  10    -24.8621390 -0.891132E-07  0.925E-04    1.00      23.6  T
  11    -24.8621390 -0.597311E-08  0.317E-04    1.00      68.9  T
     SCC iter.                  ...        0 min,  0.275 sec
     gradient                   ...        0 min,  0.017 sec
 * total energy  :   -23.7838558 Eh     change       -0.7602957E+00 Eh
   gradient norm :     0.7887145 Eh/α   predicted    -0.7928846E+00 (   4.29%)
   displ. norm   :     0.8767718 α      lambda       -0.6642165E+00
   maximum displ.:     0.4669412 α      in ANC's #17, #8, #26, ...

........................................................................
.............................. CYCLE   10 ..............................
........................................................................
   1    -24.9008227 -0.249008E+02  0.112E+00    0.90       0.0  T
   2    -24.8988874  0.193533E-02  0.746E-01    0.92       1.0  T
   3    -24.8950642  0.382318E-02  0.733E-01    0.88       1.0  T
   4    -24.9034235 -0.835932E-02  0.254E-01    0.94       1.0  T
   5    -24.9047203 -0.129679E-02  0.647E-02    0.90       1.0  T
   6    -24.9047795 -0.591898E-04  0.343E-02    0.91       1.0  T
   7    -24.9047930 -0.134978E-04  0.158E-02    0.91       1.4  T
   8    -24.9047933 -0.269583E-06  0.973E-03    0.91       2.2  T
   9    -24.9047949 -0.164001E-05  0.273E-03    0.91       8.0  T
  10    -24.9047950 -0.560616E-07  0.109E-03    0.91      20.1  T
  11    -24.9047950 -0.125594E-07  0.287E-04    0.91      76.1  T
  12    -24.9047950 -0.351267E-09  0.131E-04    0.91     166.3  T
     SCC iter.                  ...        0 min,  0.374 sec
     gradient                   ...        0 min,  0.012 sec
 * total energy  :   -24.1279648 Eh     change       -0.3441090E+00 Eh
   gradient norm :     0.9411543 Eh/α   predicted    -0.5874140E+00 (  70.71%)
   displ. norm   :     0.7330425 α      lambda       -0.4885935E+00
   maximum displ.:     0.2906085 α      in ANC's #8, #10, #20, ...

........................................................................
.............................. CYCLE   11 ..............................
........................................................................
   1    -24.9658704 -0.249659E+02  0.110E+00    1.07       0.0  T
   2    -24.9666194 -0.749023E-03  0.655E-01    1.12       1.0  T
   3    -24.9585642  0.805527E-02  0.756E-01    1.07       1.0  T
   4    -24.9670514 -0.848728E-02  0.244E-01    1.13       1.0  T
   5    -24.9680976 -0.104620E-02  0.960E-02    1.11       1.0  T
   6    -24.9682704 -0.172770E-03  0.296E-02    1.12       1.0  T
   7    -24.9682734 -0.296646E-05  0.158E-02    1.11       1.4  T
   8    -24.9682761 -0.271569E-05  0.551E-03    1.12       4.0  T
   9    -24.9682763 -0.195431E-06  0.255E-03    1.12       8.6  T
  10    -24.9682763 -0.595198E-07  0.801E-04    1.12      27.2  T
  11    -24.9682763 -0.516961E-08  0.215E-04    1.12     101.4  T
     SCC iter.                  ...        0 min,  0.219 sec
     gradient                   ...        0 min,  0.017 sec
 * total energy  :   -24.3698927 Eh     change       -0.2419278E+00 Eh
   gradient norm :     0.4736182 Eh/α   predicted    -0.3755702E+00 (  55.24%)
   displ. norm   :     0.5961014 α      lambda       -0.1538552E+00
   maximum displ.:     0.3532161 α      in ANC's #17, #12, #4, ...

........................................................................
.............................. CYCLE   12 ..............................
........................................................................
   1    -24.9656641 -0.249657E+02  0.818E-01    0.66       0.0  T
   2    -24.9319831  0.336810E-01  0.138E+00    0.60       1.0  T
   3    -24.9706280 -0.386449E-01  0.471E-01    0.64       1.0  T
   4    -24.9732513 -0.262330E-02  0.220E-01    0.66       1.0  T
   5    -24.9735768 -0.325443E-03  0.144E-01    0.65       1.0  T
   6    -24.9739380 -0.361273E-03  0.312E-02    0.64       1.0  T
   7    -24.9739445 -0.647005E-05  0.131E-02    0.65       1.7  T
   8    -24.9739462 -0.171695E-05  0.459E-03    0.65       4.8  T
   9    -24.9739464 -0.184667E-06  0.133E-03    0.65      16.4  T
  10    -24.9739464 -0.100067E-07  0.642E-04    0.65      34.0  T
  11    -24.9739464 -0.223086E-08  0.142E-04    0.65     154.0  T
     SCC iter.                  ...        0 min,  0.338 sec
     gradient                   ...        0 min,  0.018 sec
 * total energy  :   -24.4766446 Eh     change       -0.1067519E+00 Eh
   gradient norm :     0.3793987 Eh/α   predicted    -0.1042628E+00 (  -2.33%)
   displ. norm   :     0.8281657 α      lambda       -0.2076172E+00
   maximum displ.:     0.4184569 α      in ANC's #8, #17, #12, ...

........................................................................
.............................. CYCLE   13 ..............................
........................................................................
   1    -25.0854834 -0.250855E+02  0.104E+00    0.21       0.0  T
   2    -25.0619472  0.235363E-01  0.128E+00    0.27       1.0  T
   3    -25.0420323  0.199149E-01  0.156E+00    0.33       1.0  T
   4    -25.0872977 -0.452654E-01  0.638E-01    0.26       1.0  T
   5    -25.0929608 -0.566309E-02  0.173E-01    0.23       1.0  T
   6    -25.0932613 -0.300483E-03  0.761E-02    0.23       1.0  T
   7    -25.0932779 -0.166465E-04  0.360E-02    0.23       1.0  T
   8    -25.0932806 -0.270554E-05  0.181E-02    0.23       1.2  T
   9    -25.0932850 -0.437905E-05  0.101E-02    0.23       2.2  T
  10    -25.0932868 -0.178674E-05  0.270E-03    0.23       8.1  T
  11    -25.0932868 -0.359914E-07  0.160E-03    0.23      13.7  T
  12    -25.0932868 -0.438039E-07  0.219E-04    0.23      99.8  T
  13    -25.0932869 -0.259952E-09  0.117E-04    0.23     186.0  T
     SCC iter.                  ...        0 min,  0.240 sec
     gradient                   ...        0 min,  0.006 sec
 * total energy  :   -24.5940629 Eh     change       -0.1174183E+00 Eh
   gradient norm :     0.5010315 Eh/α   predicted    -0.1750066E+00 (  49.05%)
   displ. norm   :     0.7733144 α      lambda       -0.2013593E+00
   maximum displ.:     0.4066492 α      in ANC's #8, #17, #28, ...

........................................................................
.............................. CYCLE   14 ..............................
........................................................................
   1    -25.1495304 -0.251495E+02  0.213E+00    0.12       0.0  T
   2    -25.0399874  0.109543E+00  0.278E+00    0.44       1.0  T
   3    -25.1379986 -0.980112E-01  0.177E+00    0.46       1.0  T
   4    -25.1910348 -0.530362E-01  0.119E+00    0.07       1.0  T
   5    -25.2096047 -0.185699E-01  0.652E-01    0.12       1.0  T
   6    -25.2121129 -0.250825E-02  0.530E-01    0.12       1.0  T
   7    -25.2138235 -0.171053E-02  0.300E-01    0.06       1.0  T
   8    -25.2097704  0.405311E-02  0.507E-01    0.04       1.0  T
   9    -25.2152663 -0.549590E-02  0.621E-02    0.08       1.0  T
  10    -25.2152606  0.565692E-05  0.640E-02    0.08       1.0  T
  11    -25.2153148 -0.541735E-04  0.211E-02    0.08       1.0  T
  12    -25.2153143  0.503029E-06  0.197E-02    0.08       1.1  T
  13    -25.2153218 -0.754906E-05  0.577E-03    0.08       3.8  T
  14    -25.2153224 -0.556183E-06  0.290E-03    0.08       7.5  T
  15    -25.2153226 -0.172894E-06  0.379E-04    0.08      57.5  T
  16    -25.2153226 -0.263834E-08  0.994E-05    0.08     219.5  T
     SCC iter.                  ...        0 min,  0.436 sec
     gradient                   ...        0 min,  0.024 sec
 * total energy  :   -24.7111331 Eh     change       -0.1170702E+00 Eh
   gradient norm :     0.4544444 Eh/α   predicted    -0.1608876E+00 (  37.43%)
   displ. norm   :     0.7733452 α      lambda       -0.1676773E+00
   maximum displ.:     0.4451654 α      in ANC's #17, #8, #20, ...

........................................................................
.............................. CYCLE   15 ..............................
........................................................................
   1    -25.2492766 -0.252493E+02  0.132E+00    0.13       0.0  T
   2    -25.1185100  0.130767E+00  0.283E+00    0.49       1.0  T
   3    -25.2449458 -0.126436E+00  0.119E+00    0.35       1.0  T
   4    -25.2747112 -0.297654E-01  0.791E-01    0.14       1.0  T
   5    -25.2780576 -0.334639E-02  0.522E-01    0.11       1.0  T
   6    -25.2776272  0.430382E-03  0.355E-01    0.13       1.0  T
   7    -25.2770660  0.561132E-03  0.396E-01    0.07       1.0  T
   8    -25.2790368 -0.197078E-02  0.220E-01    0.09       1.0  T
   9    -25.2797241 -0.687297E-03  0.562E-02    0.10       1.0  T
  10    -25.2797525 -0.283915E-04  0.399E-02    0.10       1.0  T
  11    -25.2797766 -0.240531E-04  0.124E-02    0.10       1.8  T
  12    -25.2797788 -0.222903E-05  0.853E-04    0.10      25.6  T
  13    -25.2797787  0.115057E-06  0.296E-03    0.10       7.4  T
  14    -25.2797788 -0.105317E-06  0.111E-03    0.10      19.6  T
  15    -25.2797788 -0.217835E-07  0.163E-04    0.10     133.9  T
  16    -25.2797788 -0.398142E-09  0.627E-05    0.10     348.3  T
     SCC iter.                  ...        0 min,  0.541 sec
     gradient                   ...        0 min,  0.022 sec
 * total energy  :   -24.7994493 Eh     change       -0.8831616E-01 Eh
   gradient norm :     0.4324614 Eh/α   predicted    -0.1339793E+00 (  51.70%)
   displ. norm   :     0.6288449 α      lambda       -0.1079039E+00
   maximum displ.:     0.4578790 α      in ANC's #8, #17, #4, ...

........................................................................
.............................. CYCLE   16 ..............................
........................................................................
   1    -25.2910485 -0.252910E+02  0.186E+00    0.34       0.0  T
   2    -25.2133406  0.777079E-01  0.206E+00    0.34       1.0  T
   3    -25.3109731 -0.976325E-01  0.112E+00    0.16       1.0  T
   4    -25.3109073  0.657777E-04  0.883E-01    0.22       1.0  T
   5    -25.3240050 -0.130977E-01  0.680E-01    0.08       1.0  T
   6    -25.3275665 -0.356151E-02  0.375E-01    0.13       1.0  T
   7    -25.3293075 -0.174100E-02  0.300E-01    0.12       1.0  T
   8    -25.3298231 -0.515575E-03  0.128E-01    0.09       1.0  T
   9    -25.3301783 -0.355260E-03  0.422E-02    0.10       1.0  T
  10    -25.3301980 -0.196294E-04  0.352E-02    0.10       1.0  T
  11    -25.3302155 -0.175199E-04  0.110E-02    0.10       2.0  T
  12    -25.3302162 -0.769536E-06  0.585E-03    0.10       3.7  T
  13    -25.3302166 -0.321048E-06  0.232E-03    0.10       9.4  T
  14    -25.3302166 -0.665027E-07  0.412E-04    0.10      53.0  T
  15    -25.3302166 -0.249482E-08  0.716E-05    0.10     304.8  T
     SCC iter.                  ...        0 min,  0.413 sec
     gradient                   ...        0 min,  0.051 sec
 * total energy  :   -24.8728006 Eh     change       -0.7335128E-01 Eh
   gradient norm :     0.3190460 Eh/α   predicted    -0.7528696E-01 (   2.64%)
   displ. norm   :     0.7634656 α      lambda       -0.1168136E+00
   maximum displ.:     0.3541017 α      in ANC's #10, #17, #8, ...

........................................................................
.............................. CYCLE   17 ..............................
........................................................................
   1    -25.3749171 -0.253749E+02  0.140E+00    0.90       0.0  T
   2    -25.2795147  0.954025E-01  0.206E+00    1.15       1.0  T
   3    -25.3937304 -0.114216E+00  0.672E-01    0.81       1.0  T
   4    -25.3959087 -0.217833E-02  0.475E-01    0.79       1.0  T
   5    -25.4009681 -0.505945E-02  0.768E-02    0.77       1.0  T
   6    -25.4010157 -0.476010E-04  0.577E-02    0.77       1.0  T
   7    -25.4010386 -0.228804E-04  0.371E-02    0.78       1.0  T
   8    -25.4010644 -0.257983E-04  0.136E-02    0.77       1.6  T
   9    -25.4010676 -0.320122E-05  0.218E-03    0.77      10.0  T
  10    -25.4010676 -0.264013E-07  0.731E-04    0.77      29.8  T
  11    -25.4010677 -0.521315E-08  0.221E-04    0.77      98.8  T
     SCC iter.                  ...        0 min,  0.271 sec
     gradient                   ...        0 min,  0.006 sec
 * total energy  :   -24.9395729 Eh     change       -0.6677237E-01 Eh
   gradient norm :     0.4189444 Eh/α   predicted    -0.9245096E-01 (  38.46%)
   displ. norm   :     0.7704979 α      lambda       -0.1350492E+00
   maximum displ.:     0.3975395 α      in ANC's #8, #4, #17, ...

........................................................................
.............................. CYCLE   18 ..............................
........................................................................
   1    -25.4799306 -0.254799E+02  0.941E-01    1.55       0.0  T
   2    -25.4539903  0.259404E-01  0.120E+00    1.66       1.0  T
   3    -25.4871641 -0.331739E-01  0.456E-01    1.52       1.0  T
   4    -25.4895641 -0.240001E-02  0.177E-01    1.53       1.0  T
   5    -25.4900163 -0.452151E-03  0.512E-02    1.52       1.0  T
   6    -25.4900624 -0.460923E-04  0.225E-02    1.52       1.0  T
   7    -25.4900672 -0.485793E-05  0.113E-02    1.52       1.9  T
   8    -25.4900692 -0.193542E-05  0.217E-03    1.52      10.1  T
   9    -25.4900692 -0.253541E-07  0.814E-04    1.52      26.8  T
  10    -25.4900692 -0.133251E-08  0.303E-04    1.52      72.0  T
     SCC iter.                  ...        0 min,  0.261 sec
     gradient                   ...        0 min,  0.023 sec
 * total energy  :   -25.0207263 Eh     change       -0.8115336E-01 Eh
   gradient norm :     0.4349081 Eh/α   predicted    -0.1076117E+00 (  32.60%)
   displ. norm   :     0.7081734 α      lambda       -0.1428407E+00
   maximum displ.:     0.3352141 α      in ANC's #17, #31, #8, ...

........................................................................
.............................. CYCLE   19 ..............................
........................................................................
   1    -25.5421691 -0.255422E+02  0.916E-01    2.30       0.0  T
   2    -25.5284868  0.136823E-01  0.104E+00    2.32       1.0  T
   3    -25.5498384 -0.213516E-01  0.401E-01    2.25       1.0  T
   4    -25.5507739 -0.935497E-03  0.150E-01    2.27       1.0  T
   5    -25.5511123 -0.338402E-03  0.309E-02    2.25       1.0  T
   6    -25.5511246 -0.123206E-04  0.177E-02    2.25       1.2  T
   7    -25.5511284 -0.379271E-05  0.674E-03    2.25       3.2  T
   8    -25.5511289 -0.495803E-06  0.162E-03    2.25      13.5  T
   9    -25.5511289 -0.246801E-07  0.682E-04    2.25      32.0  T
  10    -25.5511289 -0.134061E-08  0.259E-04    2.25      84.3  T
     SCC iter.                  ...        0 min,  0.283 sec
     gradient                   ...        0 min,  0.005 sec
 * total energy  :   -25.0815450 Eh     change       -0.6081871E-01 Eh
   gradient norm :     0.5116852 Eh/α   predicted    -0.1072382E+00 (  76.32%)
   displ. norm   :     0.5897438 α      lambda       -0.1446932E+00
   maximum displ.:     0.2440082 α      in ANC's #20, #31, #4, ...

........................................................................
.............................. CYCLE   20 ..............................
........................................................................
   1    -25.6085683 -0.256086E+02  0.669E-01    2.87       0.0  T
   2    -25.6081300  0.438329E-03  0.489E-01    2.87       1.0  T
   3    -25.6093843 -0.125430E-02  0.321E-01    2.86       1.0  T
   4    -25.6103667 -0.982377E-03  0.115E-01    2.87       1.0  T
   5    -25.6105967 -0.230038E-03  0.367E-02    2.86       1.0  T
   6    -25.6106250 -0.282714E-04  0.100E-02    2.86       2.2  T
   7    -25.6106254 -0.384184E-06  0.262E-03    2.86       8.3  T
   8    -25.6106254 -0.595007E-07  0.803E-04    2.86      27.2  T
   9    -25.6106254 -0.151817E-08  0.306E-04    2.86      71.2  T
     SCC iter.                  ...        0 min,  0.080 sec
     gradient                   ...        0 min,  0.015 sec
 * total energy  :   -25.1564135 Eh     change       -0.7486845E-01 Eh
   gradient norm :     0.3101237 Eh/α   predicted    -0.9750844E-01 (  30.24%)
   displ. norm   :     0.7034088 α      lambda       -0.1108407E+00
   maximum displ.:     0.3046682 α      in ANC's #17, #5, #20, ...
 * RMSD in coord.:     2.3195474 α      energy gain  -0.3322389E+02 Eh

generating ANC from model Hessian ...
Using Lindh-Hessian (1995)
 Shifting diagonal of input Hessian by    2.9370715805290652E-002
 Lowest  eigenvalues of input Hessian
    0.010000    0.000000    0.000000    0.000000    0.000000    0.000000
    0.000000    0.035230    0.040233    0.045336    0.048043    0.055531
    0.061482    0.071825    0.076514    0.077270    0.081413    0.090076
 Highest eigenvalues
    4.188144    4.437383    4.527605    4.587498    4.673057    5.203707


........................................................................
.............................. CYCLE   21 ..............................
........................................................................
   1    -25.6449472 -0.256449E+02  0.685E-01    3.64       0.0  T
   2    -25.6452528 -0.305578E-03  0.421E-01    3.66       1.0  T
   3    -25.6445810  0.671729E-03  0.250E-01    3.64       1.0  T
   4    -25.6455540 -0.972940E-03  0.522E-02    3.65       1.0  T
   5    -25.6455974 -0.434073E-04  0.168E-02    3.65       1.3  T
   6    -25.6456001 -0.268044E-05  0.896E-03    3.65       2.4  T
   7    -25.6456006 -0.516814E-06  0.165E-03    3.65      13.3  T
   8    -25.6456006 -0.878670E-08  0.646E-04    3.65      33.8  T
   9    -25.6456006 -0.124439E-08  0.188E-04    3.65     115.9  T
     SCC iter.                  ...        0 min,  0.202 sec
     gradient                   ...        0 min,  0.039 sec
 * total energy  :   -25.1785607 Eh     change       -0.2214726E-01 Eh
   gradient norm :     0.5029018 Eh/α   predicted     0.0000000E+00 (-100.00%)
   displ. norm   :     0.4369954 α      lambda       -0.1053348E+00
   maximum displ.:     0.1717296 α      in ANC's #5, #29, #16, ...

........................................................................
.............................. CYCLE   22 ..............................
........................................................................
   1    -25.6802258 -0.256802E+02  0.394E-01    3.68       0.0  T
   2    -25.6803124 -0.865615E-04  0.243E-01    3.68       1.0  T
   3    -25.6797605  0.551868E-03  0.176E-01    3.69       1.0  T
   4    -25.6803828 -0.622319E-03  0.347E-02    3.68       1.0  T
   5    -25.6804002 -0.173394E-04  0.673E-03    3.68       3.2  T
   6    -25.6804002  0.105890E-07  0.317E-03    3.68       6.9  T
   7    -25.6804003 -0.127696E-06  0.762E-04    3.68      28.6  T
   8    -25.6804003 -0.230367E-08  0.321E-04    3.68      68.0  T
     SCC iter.                  ...        0 min,  0.171 sec
     gradient                   ...        0 min,  0.024 sec
 * total energy  :   -25.2477534 Eh     change       -0.6919267E-01 Eh
   gradient norm :     0.0905864 Eh/α   predicted    -0.6272502E-01 (  -9.35%)
   displ. norm   :     0.5827376 α      lambda       -0.3456349E-01
   maximum displ.:     0.2887529 α      in ANC's #5, #7, #6, ...

........................................................................
.............................. CYCLE   23 ..............................
........................................................................
   1    -25.7040456 -0.257040E+02  0.463E-01    3.76       0.0  T
   2    -25.7041771 -0.131550E-03  0.284E-01    3.77       1.0  T
   3    -25.7037955  0.381597E-03  0.145E-01    3.77       1.0  T
   4    -25.7041830 -0.387442E-03  0.488E-02    3.76       1.0  T
   5    -25.7042300 -0.470145E-04  0.472E-03    3.76       4.6  T
   6    -25.7042301 -0.131465E-06  0.274E-03    3.76       8.0  T
   7    -25.7042301 -0.308255E-07  0.436E-04    3.76      50.0  T
   8    -25.7042301 -0.366516E-09  0.186E-04    3.76     117.6  T
     SCC iter.                  ...        0 min,  0.169 sec
     gradient                   ...        0 min,  0.030 sec
 * total energy  :   -25.2711103 Eh     change       -0.2335690E-01 Eh
   gradient norm :     0.1053065 Eh/α   predicted    -0.2315036E-01 (  -0.88%)
   displ. norm   :     0.7467485 α      lambda       -0.2529361E-01
   maximum displ.:     0.4408339 α      in ANC's #1, #5, #6, ...

........................................................................
.............................. CYCLE   24 ..............................
........................................................................
   1    -25.7181689 -0.257182E+02  0.602E-01    3.83       0.0  T
   2    -25.7182118 -0.428718E-04  0.356E-01    3.83       1.0  T
   3    -25.7180831  0.128684E-03  0.833E-02    3.83       1.0  T
   4    -25.7182275 -0.144398E-03  0.202E-02    3.83       1.1  T
   5    -25.7182316 -0.408604E-05  0.715E-03    3.83       3.1  T
   6    -25.7182317 -0.123291E-06  0.126E-03    3.83      17.3  T
   7    -25.7182317 -0.200882E-08  0.631E-04    3.83      34.6  T
   8    -25.7182317 -0.880370E-09  0.189E-04    3.83     115.7  T
     SCC iter.                  ...        0 min,  0.103 sec
     gradient                   ...        0 min,  0.021 sec
 * total energy  :   -25.2794874 Eh     change       -0.8377095E-02 Eh
   gradient norm :     0.1294013 Eh/α   predicted    -0.1969910E-01 ( 135.15%)
   displ. norm   :     0.4755497 α      lambda       -0.1884719E-01
   maximum displ.:     0.3019928 α      in ANC's #1, #5, #6, ...

........................................................................
.............................. CYCLE   25 ..............................
........................................................................
   1    -25.7296759 -0.257297E+02  0.351E-01    3.92       0.0  T
   2    -25.7297088 -0.329547E-04  0.209E-01    3.92       1.0  T
   3    -25.7295363  0.172515E-03  0.953E-02    3.92       1.0  T
   4    -25.7297193 -0.183029E-03  0.206E-02    3.92       1.1  T
   5    -25.7297273 -0.799364E-05  0.357E-03    3.92       6.1  T
   6    -25.7297273 -0.161440E-07  0.167E-03    3.92      13.1  T
   7    -25.7297273 -0.911421E-08  0.264E-04    3.92      82.8  T
   8    -25.7297273 -0.103530E-09  0.112E-04    3.92     195.5  T
     SCC iter.                  ...        0 min,  0.185 sec
     gradient                   ...        0 min,  0.020 sec
 * total energy  :   -25.2911274 Eh     change       -0.1164001E-01 Eh
   gradient norm :     0.0642207 Eh/α   predicted    -0.1155474E-01 (  -0.73%)
   displ. norm   :     0.3598596 α      lambda       -0.6629111E-02
   maximum displ.:     0.2084781 α      in ANC's #2, #5, #1, ...

........................................................................
.............................. CYCLE   26 ..............................
........................................................................
   1    -25.7333524 -0.257334E+02  0.190E-01    3.95       0.0  T
   2    -25.7333580 -0.561069E-05  0.113E-01    3.95       1.0  T
   3    -25.7332395  0.118511E-03  0.831E-02    3.95       1.0  T
   4    -25.7333721 -0.132539E-03  0.715E-03    3.95       3.1  T
   5    -25.7333728 -0.730774E-06  0.217E-03    3.95      10.0  T
   6    -25.7333728 -0.409908E-08  0.777E-04    3.95      28.1  T
   7    -25.7333728 -0.306717E-08  0.191E-04    3.95     114.1  T
     SCC iter.                  ...        0 min,  0.171 sec
     gradient                   ...        0 min,  0.011 sec
 * total energy  :   -25.2956698 Eh     change       -0.4542410E-02 Eh
   gradient norm :     0.0573770 Eh/α   predicted    -0.3743835E-02 ( -17.58%)
   displ. norm   :     0.4201980 α      lambda       -0.5301811E-02
   maximum displ.:     0.2529058 α      in ANC's #2, #5, #6, ...

........................................................................
.............................. CYCLE   27 ..............................
........................................................................
   1    -25.7373419 -0.257373E+02  0.192E-01    3.96       0.0  T
   2    -25.7373503 -0.841436E-05  0.114E-01    3.96       1.0  T
   3    -25.7372764  0.739146E-04  0.641E-02    3.96       1.0  T
   4    -25.7373569 -0.804567E-04  0.893E-03    3.96       2.4  T
   5    -25.7373580 -0.112154E-05  0.267E-03    3.96       8.2  T
   6    -25.7373580 -0.122175E-07  0.664E-04    3.96      32.9  T
   7    -25.7373580 -0.186747E-08  0.255E-04    3.96      85.4  T
     SCC iter.                  ...        0 min,  0.250 sec
     gradient                   ...        0 min,  0.018 sec
 * total energy  :   -25.2994036 Eh     change       -0.3733820E-02 Eh
   gradient norm :     0.0370353 Eh/α   predicted    -0.3118975E-02 ( -16.47%)
   displ. norm   :     0.3935556 α      lambda       -0.3082405E-02
   maximum displ.:     0.2953077 α      in ANC's #2, #5, #6, ...

........................................................................
.............................. CYCLE   28 ..............................
........................................................................
   1    -25.7413768 -0.257414E+02  0.147E-01    3.96       0.0  T
   2    -25.7413804 -0.363063E-05  0.861E-02    3.96       1.0  T
   3    -25.7413438  0.366513E-04  0.460E-02    3.96       1.0  T
   4    -25.7413837 -0.399300E-04  0.633E-03    3.96       3.4  T
   5    -25.7413843 -0.576112E-06  0.209E-03    3.96      10.4  T
   6    -25.7413843 -0.860811E-08  0.440E-04    3.96      49.6  T
   7    -25.7413843 -0.518472E-09  0.198E-04    3.96     110.0  T
     SCC iter.                  ...        0 min,  0.230 sec
     gradient                   ...        0 min,  0.005 sec
 * total energy  :   -25.3014418 Eh     change       -0.2038192E-02 Eh
   gradient norm :     0.0248846 Eh/α   predicted    -0.1779925E-02 ( -12.67%)
   displ. norm   :     0.2982922 α      lambda       -0.1586427E-02
   maximum displ.:     0.2292962 α      in ANC's #2, #5, #11, ...

........................................................................
.............................. CYCLE   29 ..............................
........................................................................
   1    -25.7446063 -0.257446E+02  0.130E-01    3.97       0.0  T
   2    -25.7446093 -0.303246E-05  0.771E-02    3.97       1.0  T
   3    -25.7445910  0.183310E-04  0.316E-02    3.97       1.0  T
   4    -25.7446106 -0.195778E-04  0.599E-03    3.97       3.6  T
   5    -25.7446112 -0.604376E-06  0.154E-03    3.97      14.1  T
   6    -25.7446112 -0.347619E-08  0.369E-04    3.97      59.1  T
   7    -25.7446112 -0.810200E-09  0.141E-04    3.97     155.2  T
     SCC iter.                  ...        0 min,  0.220 sec
     gradient                   ...        0 min,  0.005 sec
 * total energy  :   -25.3023274 Eh     change       -0.8856314E-03 Eh
   gradient norm :     0.0246051 Eh/α   predicted    -0.8638001E-03 (  -2.47%)
   displ. norm   :     0.2262769 α      lambda       -0.7616263E-03
   maximum displ.:     0.1974761 α      in ANC's #2, #5, #3, ...

........................................................................
.............................. CYCLE   30 ..............................
........................................................................
   1    -25.7446143 -0.257446E+02  0.833E-02    3.97       0.0  T
   2    -25.7446144 -0.177402E-06  0.505E-02    3.97       1.0  T
   3    -25.7445884  0.260778E-04  0.395E-02    3.97       1.0  T
   4    -25.7446181 -0.296876E-04  0.265E-03    3.97       8.2  T
   5    -25.7446181 -0.794609E-07  0.998E-04    3.97      21.9  T
   6    -25.7446181 -0.171381E-08  0.285E-04    3.97      76.5  T
     SCC iter.                  ...        0 min,  0.180 sec
     gradient                   ...        0 min,  0.010 sec
 * total energy  :   -25.3027888 Eh     change       -0.4613772E-03 Eh
   gradient norm :     0.0150401 Eh/α   predicted    -0.4003152E-03 ( -13.23%)
   displ. norm   :     0.1782534 α      lambda       -0.5577197E-03
   maximum displ.:     0.1401517 α      in ANC's #2, #4, #12, ...

........................................................................
.............................. CYCLE   31 ..............................
........................................................................
   1    -25.7466374 -0.257466E+02  0.644E-02    3.97       0.0  T
   2    -25.7466376 -0.247727E-06  0.383E-02    3.97       1.0  T
   3    -25.7466256  0.120462E-04  0.265E-02    3.97       1.0  T
   4    -25.7466389 -0.133083E-04  0.197E-03    3.97      11.1  T
   5    -25.7466390 -0.456621E-07  0.774E-04    3.97      28.2  T
   6    -25.7466390 -0.948138E-09  0.194E-04    3.97     112.7  T
     SCC iter.                  ...        0 min,  0.226 sec
     gradient                   ...        0 min,  0.007 sec
 * total energy  :   -25.3031189 Eh     change       -0.3300570E-03 Eh
   gradient norm :     0.0223953 Eh/α   predicted    -0.2877664E-03 ( -12.81%)
   displ. norm   :     0.2417253 α      lambda       -0.6088617E-03
   maximum displ.:     0.1831176 α      in ANC's #2, #4, #11, ...

........................................................................
.............................. CYCLE   32 ..............................
........................................................................
   1    -25.7443165 -0.257443E+02  0.855E-02    3.98       0.0  T
   2    -25.7443174 -0.946300E-06  0.512E-02    3.98       1.0  T
   3    -25.7442992  0.182266E-04  0.316E-02    3.98       1.0  T
   4    -25.7443191 -0.199268E-04  0.329E-03    3.98       6.6  T
   5    -25.7443193 -0.140098E-06  0.116E-03    3.98      18.8  T
   6    -25.7443193 -0.245338E-08  0.334E-04    3.98      65.3  T
   7    -25.7443193 -0.355389E-09  0.877E-05    3.98     248.7  T
     SCC iter.                  ...        0 min,  0.149 sec
     gradient                   ...        0 min,  0.022 sec
 * total energy  :   -25.3034026 Eh     change       -0.2837531E-03 Eh
   gradient norm :     0.0214926 Eh/α   predicted    -0.3222243E-03 (  13.56%)
   displ. norm   :     0.1550942 α      lambda       -0.5433514E-03
   maximum displ.:     0.0944287 α      in ANC's #4, #6, #3, ...

........................................................................
.............................. CYCLE   33 ..............................
........................................................................
   1    -25.7459682 -0.257460E+02  0.704E-02    3.99       0.0  T
   2    -25.7459692 -0.965742E-06  0.417E-02    3.99       1.0  T
   3    -25.7459656  0.351679E-05  0.143E-02    3.99       1.5  T
   4    -25.7459693 -0.370961E-05  0.387E-03    3.99       5.6  T
   5    -25.7459696 -0.247043E-06  0.103E-03    3.99      21.2  T
   6    -25.7459696 -0.173278E-08  0.206E-04    3.99     105.8  T
   7    -25.7459696 -0.277275E-09  0.819E-05    3.99     266.5  T
     SCC iter.                  ...        0 min,  0.214 sec
     gradient                   ...        0 min,  0.006 sec
 * total energy  :   -25.3036454 Eh     change       -0.2427402E-03 Eh
   gradient norm :     0.0201468 Eh/α   predicted    -0.2782139E-03 (  14.61%)
   displ. norm   :     0.0733022 α      lambda       -0.2991203E-03
   maximum displ.:     0.0452287 α      in ANC's #4, #6, #1, ...

........................................................................
.............................. CYCLE   34 ..............................
........................................................................
   1    -25.7457478 -0.257457E+02  0.419E-02    3.99       0.0  T
   2    -25.7457479 -0.176333E-06  0.249E-02    3.99       1.0  T
   3    -25.7457422  0.576375E-05  0.185E-02    3.99       1.2  T
   4    -25.7457486 -0.643855E-05  0.120E-03    3.99      18.2  T
   5    -25.7457486 -0.192744E-07  0.516E-04    3.99      42.3  T
   6    -25.7457486 -0.590816E-09  0.149E-04    3.99     146.7  T
     SCC iter.                  ...        0 min,  0.113 sec
     gradient                   ...        0 min,  0.010 sec
 * total energy  :   -25.3037612 Eh     change       -0.1157998E-03 Eh
   gradient norm :     0.0162301 Eh/α   predicted    -0.1503727E-03 (  29.86%)
   displ. norm   :     0.0581880 α      lambda       -0.1498511E-03
   maximum displ.:     0.0362756 α      in ANC's #2, #3, #4, ...

........................................................................
.............................. CYCLE   35 ..............................
........................................................................
   1    -25.7453549 -0.257454E+02  0.267E-02    3.98       0.0  T
   2    -25.7453551 -0.192311E-06  0.160E-02    3.98       1.4  T
   3    -25.7453546  0.543422E-06  0.528E-03    3.98       4.1  T
   4    -25.7453551 -0.562984E-06  0.189E-03    3.98      11.5  T
   5    -25.7453552 -0.544316E-07  0.488E-04    3.98      44.7  T
   6    -25.7453552 -0.277662E-09  0.111E-04    3.98     196.3  T
     SCC iter.                  ...        0 min,  0.211 sec
     gradient                   ...        0 min,  0.007 sec
 * total energy  :   -25.3038268 Eh     change       -0.6560081E-04 Eh
   gradient norm :     0.0086952 Eh/α   predicted    -0.7520794E-04 (  14.64%)
   displ. norm   :     0.0483904 α      lambda       -0.5992217E-04
   maximum displ.:     0.0332693 α      in ANC's #2, #4, #3, ...

........................................................................
.............................. CYCLE   36 ..............................
........................................................................
   1    -25.7453833 -0.257454E+02  0.223E-02    3.98       0.0  T
   2    -25.7453834 -0.120527E-06  0.130E-02    3.98       1.7  T
   3    -25.7453834  0.865808E-08  0.149E-03    3.98      14.6  T
   4    -25.7453835 -0.157573E-07  0.882E-04    3.98      24.7  T
   5    -25.7453835 -0.115555E-07  0.293E-04    3.98      74.6  T
     SCC iter.                  ...        0 min,  0.293 sec
     gradient                   ...        0 min,  0.008 sec
 * total energy  :   -25.3038580 Eh     change       -0.3126704E-04 Eh
   gradient norm :     0.0055287 Eh/α   predicted    -0.3003696E-04 (  -3.93%)
   displ. norm   :     0.0169977 α      lambda       -0.2609322E-04
   maximum displ.:     0.0072111 α      in ANC's #4, #3, #14, ...

........................................................................
.............................. CYCLE   37 ..............................
........................................................................
   1    -25.7457570 -0.257458E+02  0.127E-02    3.98       0.0  T
   2    -25.7457570 -0.183970E-07  0.743E-03    3.98       2.9  T
   3    -25.7457570  0.706659E-08  0.842E-04    3.98      25.9  T
   4    -25.7457570 -0.967003E-08  0.428E-04    3.98      51.0  T
     SCC iter.                  ...        0 min,  0.132 sec
     gradient                   ...        0 min,  0.021 sec
 * total energy  :   -25.3038724 Eh     change       -0.1436523E-04 Eh
   gradient norm :     0.0037225 Eh/α   predicted    -0.1305484E-04 (  -9.12%)
   displ. norm   :     0.0230082 α      lambda       -0.1136341E-04
   maximum displ.:     0.0144477 α      in ANC's #2, #4, #3, ...

........................................................................
.............................. CYCLE   38 ..............................
........................................................................
   1    -25.7458460 -0.257458E+02  0.108E-02    3.98       0.0  T
   2    -25.7458460 -0.244297E-07  0.634E-03    3.98       3.4  T
   3    -25.7458459  0.100607E-06  0.239E-03    3.98       9.1  T
   4    -25.7458460 -0.106109E-06  0.601E-04    3.98      36.3  T
   5    -25.7458460 -0.659990E-08  0.133E-04    3.98     164.6  T
     SCC iter.                  ...        0 min,  0.187 sec
     gradient                   ...        0 min,  0.023 sec
 * total energy  :   -25.3038788 Eh     change       -0.6386870E-05 Eh
   gradient norm :     0.0021695 Eh/α   predicted    -0.5686773E-05 ( -10.96%)
   displ. norm   :     0.0230161 α      lambda        0.7357936E-05
   maximum displ.:     0.0144477 α      in ANC's #2, #4, #3, ...

........................................................................
.............................. CYCLE   39 ..............................
........................................................................
   1    -25.7459182 -0.257459E+02  0.108E-02    3.98       0.0  T
   2    -25.7459183 -0.243472E-07  0.636E-03    3.98       3.4  T
   3    -25.7459181  0.116073E-06  0.256E-03    3.98       8.5  T
   4    -25.7459183 -0.123067E-06  0.596E-04    3.98      36.6  T
   5    -25.7459183 -0.644963E-08  0.132E-04    3.98     165.5  T
     SCC iter.                  ...        0 min,  0.172 sec
     gradient                   ...        0 min,  0.014 sec
 * total energy  :   -25.3038751 Eh     change        0.3686823E-05 Eh
   gradient norm :     0.0042245 Eh/α   predicted     0.3680664E-05 (  -0.17%)
   displ. norm   :     0.0156704 α      lambda       -0.1126074E-04
   maximum displ.:     0.0086151 α      in ANC's #2, #4, #3, ...

........................................................................
.............................. CYCLE   40 ..............................
........................................................................
   1    -25.7459127 -0.257459E+02  0.891E-03    3.98       0.0  T
   2    -25.7459127 -0.183323E-07  0.521E-03    3.98       4.2  T
   3    -25.7459127  0.345624E-07  0.146E-03    3.98      14.9  T
   4    -25.7459127 -0.343896E-07  0.534E-04    3.98      40.9  T
   5    -25.7459127 -0.552158E-08  0.944E-05    3.98     231.2  T
     SCC iter.                  ...        0 min,  0.099 sec
     gradient                   ...        0 min,  0.016 sec
 * total energy  :   -25.3038808 Eh     change       -0.5737505E-05 Eh
   gradient norm :     0.0012967 Eh/α   predicted    -0.5634961E-05 (  -1.79%)
   displ. norm   :     0.0072078 α      lambda       -0.1784608E-05
   maximum displ.:     0.0034203 α      in ANC's #3, #2, #13, ...

........................................................................
.............................. CYCLE   41 ..............................
........................................................................
   1    -25.7457182 -0.257457E+02  0.566E-03    3.98       0.0  T
   2    -25.7457182 -0.126146E-07  0.333E-03    3.98       6.6  T
   3    -25.7457182  0.345140E-07  0.142E-03    3.98      15.4  T
   4    -25.7457182 -0.356169E-07  0.416E-04    3.98      52.4  T
   5    -25.7457183 -0.309647E-08  0.733E-05    3.98     297.8  T
     SCC iter.                  ...        0 min,  0.196 sec
     gradient                   ...        0 min,  0.008 sec
 * total energy  :   -25.3038809 Eh     change       -0.9467249E-07 Eh
   gradient norm :     0.0020513 Eh/α   predicted    -0.8959233E-06 ( 846.34%)
   displ. norm   :     0.0028723 α      lambda       -0.1735128E-05
   maximum displ.:     0.0012883 α      in ANC's #7, #15, #11, ...

........................................................................
.............................. CYCLE   42 ..............................
........................................................................
   1    -25.7458182 -0.257458E+02  0.262E-03    3.98       0.0  T
   2    -25.7458182 -0.254179E-08  0.152E-03    3.98      14.4  T
   3    -25.7458182  0.306951E-09  0.219E-04    3.98      99.5  T
   4    -25.7458182 -0.512717E-09  0.960E-05    3.98     227.3  T
     SCC iter.                  ...        0 min,  0.155 sec
     gradient                   ...        0 min,  0.029 sec
 * total energy  :   -25.3038821 Eh     change       -0.1157787E-05 Eh
   gradient norm :     0.0008131 Eh/α   predicted    -0.8710125E-06 ( -24.77%)
   displ. norm   :     0.0042737 α      lambda        0.7175938E-07
   maximum displ.:     0.0019324 α      in ANC's #7, #15, #11, ...

   *** GEOMETRY OPTIMIZATION CONVERGED AFTER 42 ITERATIONS ***

------------------------------------------------------------------------
 total energy gain   :       -33.3713541 Eh   -20940.8409 kcal/mol
 total RMSD          :         2.4601804 a0        1.3019 Å
 total power (kW/mol):     -2086.1066230 (step)-7283.9088 (real)
------------------------------------------------------------------------

 ANCopt (total)                0 d,  0 h,  0 min, 12.029 sec
 optimizer setup                ...        0 min,  0.001 sec (  0.006%)
 model hessian                  ...        0 min,  0.041 sec (  0.337%)
 ANC generation                 ...        0 min,  0.033 sec (  0.278%)
 coordinate transformation      ...        0 min,  0.006 sec (  0.047%)
 single point calculation       ...        0 min, 11.783 sec ( 97.959%)
 optimization log               ...        0 min,  0.010 sec (  0.086%)
 hessian update                 ...        0 min,  0.058 sec (  0.480%)
 rational function              ...        0 min,  0.060 sec (  0.498%)

================
 final structure:
================
21
 xtb: 6.3.3 (7355c4f)
C         0.16784520364489   -1.07889863907849    1.51563371952409
C         1.22814205825688   -0.57770075505365    0.80438854064006
C         1.10165705043789    0.83430060328158    0.82505224384756
C        -0.03068334614422    1.11812821271083    1.54885696640545
C        -0.90755292308077   -0.06460153068196    1.23433463861765
C         0.50129338769633   -0.68182397414784    3.03764852856794
C         0.37196332887170    0.74195419944120    3.05904664176520
C        -0.74884922320954    0.64102208670936    4.05498389208856
C        -0.61505231697307   -0.81557119573336    4.03354189223993
H        -0.09633600925718   -2.12730726075163    1.41547579802282
H         2.07856878747323   -1.11450950461907    0.41398525012993
H         1.84128680977039    1.52688303625829    0.45015029795736
H        -0.47753167120798    2.10506566977686    1.47783620903792
H        -1.21297074304637   -0.07632096397568    0.17371762365181
H        -1.82066184651284   -0.15695452149273    1.84667470153157
H         1.44169553715202   -1.14720344105122    3.31513312098475
H         1.21126917050703    1.35962284028532    3.35405953343794
H        -1.72022308808507    1.06032495205256    3.72440162835848
H        -0.51958427922915    1.11541170795956    5.03099086970010
H        -1.49362019178563   -1.39371435004123    3.68888495763253
H        -0.30065469527888   -1.26810717184914    4.99520194585896

 Bond Distances (Angstroems)
 ---------------------------
C1-C2=1.3716         C1-C5=1.5048         C1-C6=1.6079         C1-H10=1.0858        C2-C1=1.3716         C2-C3=1.4178         
C2-H11=1.0788        C3-C2=1.4178         C3-C4=1.3736         C3-H12=1.0804        C4-C3=1.3736         C4-C5=1.5055         
C4-C7=1.6076         C4-H13=1.0857        C5-C1=1.5048         C5-C4=1.5055         C5-H14=1.1038        C5-H15=1.1033        
C6-C1=1.6079         C6-C7=1.4298         C6-C9=1.5020         C6-H16=1.0853        C7-C4=1.6076         C7-C6=1.4298         
C7-C8=1.5028         C7-H17=1.0830        C8-C7=1.5028         C8-C9=1.4629         C8-H18=1.1085        C8-H19=1.1091        
C9-C6=1.5020         C9-C8=1.4629         C9-H20=1.1068        C9-H21=1.1083        H10-C1=1.0858        H11-C2=1.0788        
H12-C3=1.0804        H13-C4=1.0857        H14-C5=1.1038        H15-C5=1.1033        H16-C6=1.0853        H17-C7=1.0830        
H18-C8=1.1085        H19-C8=1.1091        H20-C9=1.1068        H21-C9=1.1083        
 C  H  Rav=1.0949 sigma=0.0120  Rmin=1.0788  Rmax=1.1091    12
 C  C  Rav=1.4806 sigma=0.0767  Rmin=1.3716  Rmax=1.6079    11

 selected bond angles (degree)
 --------------------
C5-C1-C2=102.08                C6-C1-C2=103.90                C6-C1-C5= 99.13                H10-C1-C2=119.54               
H10-C1-C5=117.37               H10-C1-C6=112.10               C3-C2-C1=106.70                H11-C2-C1=127.97               
H11-C2-C3=124.83               C4-C3-C2=106.68                H12-C3-C2=124.91               H12-C3-C4=127.93               
C5-C4-C3=101.99                C7-C4-C3=103.90                C7-C4-C5= 99.11                H13-C4-C3=119.52               
H13-C4-C5=117.43               H13-C4-C7=112.16               C4-C5-C1= 94.26                H14-C5-C1=111.73               
H14-C5-C4=111.73               H15-C5-C1=115.55               H15-C5-C4=115.58               H15-C5-H14=107.66              
C7-C6-C1=103.96                C9-C6-C1=116.84                C9-C6-C7= 90.66                H16-C6-C1=108.41               
H16-C6-C7=120.10               H16-C6-C9=115.87               C6-C7-C4=103.98                C8-C7-C4=116.84                
C8-C7-C6= 90.60                H17-C7-C4=108.45               H17-C7-C6=120.12               H17-C7-C8=115.83               
C9-C8-C7= 89.37                H18-C8-C7=115.50               H18-C8-C9=116.90               H19-C8-C7=113.60               
H19-C8-C9=114.83               H19-C8-H18=106.37              C8-C9-C6= 89.37                H20-C9-C6=115.47               
H20-C9-C8=116.88               H21-C9-C6=113.63               H21-C9-C8=114.82               H21-C9-H20=106.38              

 selected dihedral angles (degree)
 ---------------------------------
C3-C2-C1-C5= 32.21            C3-C2-C1-C6=289.50            C3-C2-C1-H10=163.64           H11-C2-C1-C5=204.34           
H11-C2-C1-C6=101.62           H11-C2-C1-H10=335.76          C4-C3-C2-C1=  0.00            C4-C3-C2-H11=187.56           
H12-C3-C2-C1=172.60           H12-C3-C2-H11=  0.16          C5-C4-C3-C2=327.82            C5-C4-C3-H12=155.51           
C7-C4-C3-C2= 70.48            C7-C4-C3-H12=258.18           H13-C4-C3-C2=196.41           H13-C4-C3-H12= 24.10          
C4-C5-C1-C2=311.37            C4-C5-C1-C6= 57.82            C4-C5-C1-H10=178.64           H14-C5-C1-C2= 66.79           
H14-C5-C1-C6=173.25           H14-C5-C1-H10=294.06          H15-C5-C1-C2=190.33           H15-C5-C1-C6=296.79           
H15-C5-C1-H10= 57.61          C1-C5-C4-C3= 48.58            C1-C5-C4-C7=302.16            C1-C5-C4-H13=181.25           
H14-C5-C4-C3=293.16           H14-C5-C4-C7=186.73           H14-C5-C4-H13= 65.82          H15-C5-C4-C3=169.59           
H15-C5-C4-C7= 63.16           H15-C5-C4-H13=302.25          C7-C6-C1-C2= 68.57            C7-C6-C1-C5=323.61            
C7-C6-C1-H10=199.02           C9-C6-C1-C2=166.57            C9-C6-C1-C5= 61.61            C9-C6-C1-H10=297.02           
H16-C6-C1-C2=299.71           H16-C6-C1-C5=194.75           H16-C6-C1-H10= 70.16          C6-C7-C4-C3=291.57            
C6-C7-C4-C5= 36.42            C6-C7-C4-H13=161.12           C8-C7-C4-C3=193.63            C8-C7-C4-C5=298.48            
C8-C7-C4-H13= 63.18           H17-C7-C4-C3= 60.49           H17-C7-C4-C5=165.35           H17-C7-C4-H13=290.04          
C4-C7-C6-C1=359.96            C4-C7-C6-C9=242.05            C4-C7-C6-H16=121.32           C8-C7-C6-C1=117.86            
C8-C7-C6-C9=359.95            C8-C7-C6-H16=239.22           H17-C7-C6-C1=238.52           H17-C7-C6-C9=120.61           
H17-C7-C6-H16=359.88          C9-C8-C7-C4=106.08            C9-C8-C7-C6=  0.05            C9-C8-C7-H17=235.81           
H18-C8-C7-C4=346.34           H18-C8-C7-C6=240.31           H18-C8-C7-H17=116.07          H19-C8-C7-C4=223.04           
H19-C8-C7-C6=117.01           H19-C8-C7-H17=352.77          C8-C9-C6-C1=254.01            C8-C9-C6-C7=  0.05            
C8-C9-C6-H16=124.32           H20-C9-C6-C1= 13.72           H20-C9-C6-C7=119.76           H20-C9-C6-H16=244.02          
H21-C9-C6-C1=137.05           H21-C9-C6-C7=243.09           H21-C9-C6-H16=  7.35          C6-C9-C8-C7=359.95            
C6-C9-C8-H18=118.45           C6-C9-C8-H19=244.10           H20-C9-C8-C7=241.49           H20-C9-C8-H18=  0.00          
H20-C9-C8-H19=125.64          H21-C9-C8-C7=115.84           H21-C9-C8-H18=234.34          H21-C9-C8-H19=  0.00          

 CMA Distance (Angstroems)
 ---------------------------
R(CMA):  2.4714
           -------------------------------------------------
          |                Final Singlepoint                |
           -------------------------------------------------

          ...................................................
          :                      SETUP                      :
          :.................................................:
          :  # basis functions                  48          :
          :  # atomic orbitals                  48          :
          :  # shells                           30          :
          :  # electrons                        48          :
          :  max. iterations                   250          :
          :  Hamiltonian                  GFN2-xTB          :
          :  restarted?                      false          :
          :  GBSA solvation                  false          :
          :  PC potential                    false          :
          :  electronic temp.          300.0000000     K    :
          :  accuracy                    1.0000000          :
          :  -> integral cutoff          0.2500000E+02      :
          :  -> integral neglect         0.1000000E-07      :
          :  -> SCF convergence          0.1000000E-05 Eh   :
          :  -> wf. convergence          0.1000000E-03 e    :
          :  Broyden damping             0.4000000          :
          ...................................................

 iter      E             dE          RMSdq      gap      omega  full diag
   1    -25.7458182 -0.257458E+02  0.416E-05    3.98       0.0  T
   2    -25.7458182  0.583000E-11  0.370E-05    3.98     590.3  T
   3    -25.7458182 -0.201865E-10  0.155E-05    3.98    1410.2  T

   *** convergence criteria satisfied after 3 iterations ***

         #    Occupation            Energy/Eh            Energy/eV
      -------------------------------------------------------------
         1        2.0000           -0.6654250             -18.1071
       ...           ...                  ...                  ...
        18        2.0000           -0.4438697             -12.0783
        19        2.0000           -0.4432097             -12.0603
        20        2.0000           -0.4344848             -11.8229
        21        2.0000           -0.4212426             -11.4626
        22        2.0000           -0.4121625             -11.2155
        23        2.0000           -0.4082875             -11.1101
        24        2.0000           -0.3604049              -9.8071 (HOMO)
        25                         -0.2141450              -5.8272 (LUMO)
        26                         -0.0144506              -0.3932
        27                          0.0704674               1.9175
        28                          0.0758483               2.0639
        29                          0.0972455               2.6462
       ...                                ...                  ...
        48                          0.6610348              17.9877
      -------------------------------------------------------------
                  HL-Gap            0.1462599 Eh            3.9799 eV
             Fermi-level           -0.2872750 Eh           -7.8171 eV

 SCC (total)                   0 d,  0 h,  0 min,  0.153 sec
 SCC setup                      ...        0 min,  0.005 sec (  3.224%)
 Dispersion                     ...        0 min,  0.000 sec (  0.187%)
 classical contributions        ...        0 min,  0.002 sec (  0.983%)
 integral evaluation            ...        0 min,  0.011 sec (  7.041%)
 iterations                     ...        0 min,  0.122 sec ( 79.470%)
 molecular gradient             ...        0 min,  0.012 sec (  7.697%)
 printout                       ...        0 min,  0.002 sec (  0.979%)

         :::::::::::::::::::::::::::::::::::::::::::::::::::::
         ::                     SUMMARY                     ::
         :::::::::::::::::::::::::::::::::::::::::::::::::::::
         :: total energy             -25.303882094143 Eh    ::
         :: gradient norm              0.000813133942 Eh/a0 ::
         :: HOMO-LUMO gap              3.979933476089 eV    ::
         ::.................................................::
         :: SCC energy               -25.745818167853 Eh    ::
         :: -> isotropic ES            0.002095952960 Eh    ::
         :: -> anisotropic ES          0.003700362561 Eh    ::
         :: -> anisotropic XC          0.014168640877 Eh    ::
         :: -> dispersion             -0.017937975499 Eh    ::
         :: repulsion energy           0.425717880194 Eh    ::
         :: add. restraining           0.016149178387 Eh    ::
         :: total charge               0.000000000000 e     ::
         :::::::::::::::::::::::::::::::::::::::::::::::::::::

           -------------------------------------------------
          |                Property Printout                |
           -------------------------------------------------

    * Orbital Energies and Occupations

         #    Occupation            Energy/Eh            Energy/eV
      -------------------------------------------------------------
         1        2.0000           -0.6654250             -18.1071
       ...           ...                  ...                  ...
        12        2.0000           -0.5204387             -14.1619
        13        2.0000           -0.4865878             -13.2407
        14        2.0000           -0.4826808             -13.1344
        15        2.0000           -0.4598652             -12.5136
        16        2.0000           -0.4563346             -12.4175
        17        2.0000           -0.4474834             -12.1766
        18        2.0000           -0.4438697             -12.0783
        19        2.0000           -0.4432097             -12.0603
        20        2.0000           -0.4344848             -11.8229
        21        2.0000           -0.4212426             -11.4626
        22        2.0000           -0.4121625             -11.2155
        23        2.0000           -0.4082875             -11.1101
        24        2.0000           -0.3604049              -9.8071 (HOMO)
        25                         -0.2141450              -5.8272 (LUMO)
        26                         -0.0144506              -0.3932
        27                          0.0704674               1.9175
        28                          0.0758483               2.0639
        29                          0.0972455               2.6462
        30                          0.1057259               2.8769
        31                          0.1117100               3.0398
        32                          0.1343598               3.6561
        33                          0.1479437               4.0258
        34                          0.1488076               4.0493
        35                          0.1561730               4.2497
       ...                                ...                  ...
        48                          0.6610348              17.9877
      -------------------------------------------------------------
                  HL-Gap            0.1462599 Eh            3.9799 eV
             Fermi-level           -0.2872750 Eh           -7.8171 eV

     #   Z          covCN         q      C6AA      α(0)
     1   6 C        4.098    -0.007    20.621     6.450
     2   6 C        3.118    -0.050    29.069     8.831
     3   6 C        3.118    -0.050    29.074     8.832
     4   6 C        4.097    -0.007    20.625     6.451
     5   6 C        4.049    -0.053    21.448     6.578
     6   6 C        4.236    -0.016    20.776     6.474
     7   6 C        4.235    -0.016    20.780     6.474
     8   6 C        4.119    -0.050    21.383     6.568
     9   6 C        4.119    -0.050    21.386     6.568
    10   1 H        0.925     0.022     2.696     2.568
    11   1 H        0.926     0.021     2.711     2.575
    12   1 H        0.926     0.021     2.715     2.577
    13   1 H        0.925     0.023     2.694     2.567
    14   1 H        0.923     0.029     2.606     2.525
    15   1 H        0.923     0.032     2.554     2.499
    16   1 H        0.925     0.020     2.726     2.582
    17   1 H        0.925     0.021     2.717     2.578
    18   1 H        0.922     0.029     2.606     2.525
    19   1 H        0.922     0.027     2.633     2.538
    20   1 H        0.922     0.029     2.602     2.523
    21   1 H        0.922     0.027     2.630     2.536

 Mol. C6AA /au·bohr⁶  :       3884.317310
 Mol. C8AA /au·bohr⁸  :      88844.622465
 Mol. α(0) /au        :         93.816228


Wiberg/Mayer (AO) data.
largest (>0.10) Wiberg bond orders for each atom

 ---------------------------------------------------------------------------
     #   Z sym  total        # sym  WBO       # sym  WBO       # sym  WBO
 ---------------------------------------------------------------------------
     1   6 C    3.994 --     2 C    1.097     5 C    0.984    10 H    0.968
                             6 C    0.882
     2   6 C    3.984 --     3 C    1.776     1 C    1.097    11 H    0.973
     3   6 C    3.984 --     2 C    1.776     4 C    1.096    12 H    0.973
     4   6 C    3.994 --     3 C    1.096     5 C    0.983    13 H    0.968
                             7 C    0.883
     5   6 C    3.995 --     1 C    0.984     4 C    0.983    14 H    0.974
                            15 H    0.972
     6   6 C    3.985 --     7 C    1.028     9 C    0.989    16 H    0.973
                             1 C    0.882
     7   6 C    3.985 --     6 C    1.028     8 C    0.989    17 H    0.973
                             4 C    0.883
     8   6 C    3.991 --     9 C    1.012     7 C    0.989    19 H    0.975
                            18 H    0.973
     9   6 C    3.991 --     8 C    1.012     6 C    0.989    21 H    0.975
                            20 H    0.973
    10   1 H    0.999 --     1 C    0.968
    11   1 H    1.000 --     2 C    0.973
    12   1 H    1.000 --     3 C    0.973
    13   1 H    0.999 --     4 C    0.968
    14   1 H    0.999 --     5 C    0.974
    15   1 H    0.999 --     5 C    0.972
    16   1 H    1.000 --     6 C    0.973
    17   1 H    1.000 --     7 C    0.973
    18   1 H    0.999 --     8 C    0.973
    19   1 H    0.999 --     8 C    0.975
    20   1 H    0.999 --     9 C    0.973
    21   1 H    0.999 --     9 C    0.975
 ---------------------------------------------------------------------------

Topologies differ in total number of bonds
Writing topology from bond orders to xtbtopo.mol

molecular dipole:
                 x           y           z       tot (Debye)
 q only:       -0.186      -0.020       0.179
   full:       -0.143      -0.017       0.261       0.757
molecular quadrupole (traceless):
                xx          xy          yy          xz          yz          zz
 q only:       -0.764      -0.028      -0.482      -0.922      -0.094       1.246
  q+dip:       -0.447      -0.014      -0.400       0.023       0.005       0.847
   full:       -0.722      -0.003      -0.805       0.003      -0.012       1.527

           -------------------------------------------------
          |                Geometry Summary                 |
           -------------------------------------------------

      molecular mass/u    :      120.1919121
   center of mass at/Å    :        0.0978384       0.0106931       2.2605649
  moments of inertia/u·Å² :        0.1438030E+03   0.2812740E+03   0.3139175E+03
rotational constants/cm⁻¹ :        0.1172272E+00   0.5993314E-01   0.5370083E-01

 * 21 selected distances

     #   Z          #   Z                                           value/Å
     1   6 C        2   6 C                                       1.3716043
     2   6 C        3   6 C                                       1.4178058
     3   6 C        4   6 C                                       1.3735524
     1   6 C        5   6 C                                       1.5047953
     4   6 C        5   6 C                                       1.5055478 (max)
     6   6 C        7   6 C                                       1.4298001
     7   6 C        8   6 C                                       1.5027638
     6   6 C        9   6 C                                       1.5019719
     8   6 C        9   6 C                                       1.4628826
     1   6 C       10   1 H                                       1.0858103
     2   6 C       11   1 H                                       1.0787975 (min)
     3   6 C       12   1 H                                       1.0804046
     4   6 C       13   1 H                                       1.0857085
     5   6 C       14   1 H                                       1.1037780
     5   6 C       15   1 H                                       1.1032939
     6   6 C       16   1 H                                       1.0853257
     7   6 C       17   1 H                                       1.0830427
     8   6 C       18   1 H                                       1.1084524
     8   6 C       19   1 H                                       1.1091427
     9   6 C       20   1 H                                       1.1067608
     9   6 C       21   1 H                                       1.1083432

 * 2 distinct bonds (by element types)

   Z      Z             #   av. dist./Å        max./Å        min./Å
   1 H    6 C          12     1.0949050     1.1091427     1.0787975
   6 C    6 C           9     1.4523027     1.5055478     1.3716043


optimized geometry written to: xtbopt.xyz


           -------------------------------------------------
          | TOTAL ENERGY              -25.303882094143 Eh   |
          | GRADIENT NORM               0.000813133942 Eh/α |
          | HOMO-LUMO GAP               3.979933476089 eV   |
           -------------------------------------------------

------------------------------------------------------------------------
 * finished run on 2022/09/06 at 17:46:03.802     
------------------------------------------------------------------------
 total:
 * wall-time:     0 d,  0 h,  0 min, 12.703 sec
 *  cpu-time:     0 d,  0 h,  7 min, 14.592 sec
 * ratio c/w:    34.211 speedup
 SCF:
 * wall-time:     0 d,  0 h,  0 min,  0.411 sec
 *  cpu-time:     0 d,  0 h,  0 min, 12.779 sec
 * ratio c/w:    31.105 speedup
 ANC optimizer:
 * wall-time:     0 d,  0 h,  0 min, 12.191 sec
 *  cpu-time:     0 d,  0 h,  6 min, 57.096 sec
 * ratio c/w:    34.213 speedup

