Job Start Time: Tue Sep  6 22:57:29 MDT 2022
SLURM Job ID: 71228
SLURM Job Name: P3_crest_conf_1
 Entering Gaussian System, Link 0=/opt/apps/Gaussian/G16C/g16/g16
 Initial command:
 /opt/apps/Gaussian/G16C/g16/l1.exe "/tmp/Gau-2694752.inp" -scrdir="/tmp/"
 Entering Link 1 = /opt/apps/Gaussian/G16C/g16/l1.exe PID=   2694753.
  
 Copyright (c) 1988-2019, Gaussian, Inc.  All Rights Reserved.
  
 This is part of the Gaussian(R) 16 program.  It is based on
 the Gaussian(R) 09 system (copyright 2009, Gaussian, Inc.),
 the Gaussian(R) 03 system (copyright 2003, Gaussian, Inc.),
 the Gaussian(R) 98 system (copyright 1998, Gaussian, Inc.),
 the Gaussian(R) 94 system (copyright 1995, Gaussian, Inc.),
 the Gaussian 92(TM) system (copyright 1992, Gaussian, Inc.),
 the Gaussian 90(TM) system (copyright 1990, Gaussian, Inc.),
 the Gaussian 88(TM) system (copyright 1988, Gaussian, Inc.),
 the Gaussian 86(TM) system (copyright 1986, Carnegie Mellon
 University), and the Gaussian 82(TM) system (copyright 1983,
 Carnegie Mellon University). Gaussian is a federally registered
 trademark of Gaussian, Inc.
  
 This software contains proprietary and confidential information,
 including trade secrets, belonging to Gaussian, Inc.
  
 This software is provided under written license and may be
 used, copied, transmitted, or stored only in accord with that
 written license.
  
 The following legend is applicable only to US Government
 contracts under FAR:
  
                    RESTRICTED RIGHTS LEGEND
  
 Use, reproduction and disclosure by the US Government is
 subject to restrictions as set forth in subparagraphs (a)
 and (c) of the Commercial Computer Software - Restricted
 Rights clause in FAR 52.227-19.
  
 Gaussian, Inc.
 340 Quinnipiac St., Bldg. 40, Wallingford CT 06492
  
  
 ---------------------------------------------------------------
 Warning -- This program may not be used in any manner that
 competes with the business of Gaussian, Inc. or will provide
 assistance to any competitor of Gaussian, Inc.  The licensee
 of this program is prohibited from giving any competitor of
 Gaussian, Inc. access to this program.  By using this program,
 the user acknowledges that Gaussian, Inc. is engaged in the
 business of creating and licensing software in the field of
 computational chemistry and represents and warrants to the
 licensee that it is not a competitor of Gaussian, Inc. and that
 it will not use this program in any manner prohibited above.
 ---------------------------------------------------------------
  

 Cite this work as:
 Gaussian 16, Revision C.01,
 M. J. Frisch, G. W. Trucks, H. B. Schlegel, G. E. Scuseria, 
 M. A. Robb, J. R. Cheeseman, G. Scalmani, V. Barone, 
 G. A. Petersson, H. Nakatsuji, X. Li, M. Caricato, A. V. Marenich, 
 J. Bloino, B. G. Janesko, R. Gomperts, B. Mennucci, H. P. Hratchian, 
 J. V. Ortiz, A. F. Izmaylov, J. L. Sonnenberg, D. Williams-Young, 
 F. Ding, F. Lipparini, F. Egidi, J. Goings, B. Peng, A. Petrone, 
 T. Henderson, D. Ranasinghe, V. G. Zakrzewski, J. Gao, N. Rega, 
 G. Zheng, W. Liang, M. Hada, M. Ehara, K. Toyota, R. Fukuda, 
 J. Hasegawa, M. Ishida, T. Nakajima, Y. Honda, O. Kitao, H. Nakai, 
 T. Vreven, K. Throssell, J. A. Montgomery, Jr., J. E. Peralta, 
 F. Ogliaro, M. J. Bearpark, J. J. Heyd, E. N. Brothers, K. N. Kudin, 
 V. N. Staroverov, T. A. Keith, R. Kobayashi, J. Normand, 
 K. Raghavachari, A. P. Rendell, J. C. Burant, S. S. Iyengar, 
 J. Tomasi, M. Cossi, J. M. Millam, M. Klene, C. Adamo, R. Cammi, 
 J. W. Ochterski, R. L. Martin, K. Morokuma, O. Farkas, 
 J. B. Foresman, and D. J. Fox, Gaussian, Inc., Wallingford CT, 2019.
 
 ******************************************
 Gaussian 16:  AS64L-G16RevC.01  3-Jul-2019
                 6-Sep-2022 
 ******************************************
 %nprocshared=16
 Will use up to   16 processors via shared memory.
 %mem=72GB
 -------------------------
 # B3LYP/def2tzvp opt freq
 -------------------------
 1/18=20,19=15,26=3,38=1/1,3;
 2/9=110,12=2,17=6,18=5,40=1/2;
 3/5=44,7=101,11=2,25=1,30=1,71=1,74=-5/1,2,3;
 4//1;
 5/5=2,38=5/2;
 6/7=2,8=2,9=2,10=2,28=1/1;
 7//1,2,3,16;
 1/18=20,19=15,26=3/3(2);
 2/9=110/2;
 99//99;
 2/9=110/2;
 3/5=44,7=101,11=2,25=1,30=1,71=1,74=-5/1,2,3;
 4/5=5,16=3,69=1/1;
 5/5=2,38=5/2;
 7//1,2,3,16;
 1/18=20,19=15,26=3/3(-5);
 2/9=110/2;
 6/7=2,8=2,9=2,10=2,19=2,28=1/1;
 99/9=1/99;
 ---------------
 P3_crest_conf_1
 ---------------
 Symbolic Z-matrix:
 Charge =  0 Multiplicity = 1
 C                    -0.2779    0.7729   -0.8715 
 C                     1.0617    1.1158   -0.1666 
 C                     0.9474    0.6633    1.2642 
 C                     0.9475   -0.6633    1.2642 
 C                     1.062    -1.1157   -0.1667 
 C                     1.9525    0.0002   -0.7287 
 C                    -0.2777   -0.773    -0.8715 
 C                    -1.5577   -1.2137   -0.1549 
 C                    -2.0337    0.        0.648 
 C                    -1.5579    1.2136   -0.1549 
 H                    -0.2473    1.1798   -1.8846 
 H                     1.3901    2.1421   -0.3173 
 H                     0.8328    1.329     2.1007 
 H                     0.833    -1.3291    2.1006 
 H                     1.3905   -2.1419   -0.3174 
 H                     2.9533    0.0003   -0.2979 
 H                     2.0212    0.0003   -1.8158 
 H                    -0.2471   -1.18     -1.8846 
 H                    -2.3133   -1.4819   -0.8957 
 H                    -1.3882   -2.0821    0.4807 
 H                    -3.1165   -0.0001    0.7746 
 H                    -1.579     0.        1.6374 
 H                    -1.3885    2.0822    0.4805 
 H                    -2.3134    1.4816   -0.8958 
 

 GradGradGradGradGradGradGradGradGradGradGradGradGradGradGradGradGradGrad
 Berny optimization.
 Initialization pass.
                           ----------------------------
                           !    Initial Parameters    !
                           ! (Angstroms and Degrees)  !
 --------------------------                            --------------------------
 ! Name  Definition              Value          Derivative Info.                !
 --------------------------------------------------------------------------------
 ! R1    R(1,2)                  1.5521         estimate D2E/DX2                !
 ! R2    R(1,7)                  1.5459         estimate D2E/DX2                !
 ! R3    R(1,10)                 1.5317         estimate D2E/DX2                !
 ! R4    R(1,11)                 1.0922         estimate D2E/DX2                !
 ! R5    R(2,3)                  1.505          estimate D2E/DX2                !
 ! R6    R(2,6)                  1.5343         estimate D2E/DX2                !
 ! R7    R(2,12)                 1.088          estimate D2E/DX2                !
 ! R8    R(3,4)                  1.3266         estimate D2E/DX2                !
 ! R9    R(3,13)                 1.0752         estimate D2E/DX2                !
 ! R10   R(4,5)                  1.5051         estimate D2E/DX2                !
 ! R11   R(4,14)                 1.0752         estimate D2E/DX2                !
 ! R12   R(5,6)                  1.5343         estimate D2E/DX2                !
 ! R13   R(5,7)                  1.5521         estimate D2E/DX2                !
 ! R14   R(5,15)                 1.088          estimate D2E/DX2                !
 ! R15   R(6,16)                 1.0896         estimate D2E/DX2                !
 ! R16   R(6,17)                 1.0893         estimate D2E/DX2                !
 ! R17   R(7,8)                  1.5317         estimate D2E/DX2                !
 ! R18   R(7,18)                 1.0922         estimate D2E/DX2                !
 ! R19   R(8,9)                  1.5311         estimate D2E/DX2                !
 ! R20   R(8,19)                 1.0916         estimate D2E/DX2                !
 ! R21   R(8,20)                 1.0894         estimate D2E/DX2                !
 ! R22   R(9,10)                 1.531          estimate D2E/DX2                !
 ! R23   R(9,21)                 1.0902         estimate D2E/DX2                !
 ! R24   R(9,22)                 1.0889         estimate D2E/DX2                !
 ! R25   R(10,23)                1.0894         estimate D2E/DX2                !
 ! R26   R(10,24)                1.0916         estimate D2E/DX2                !
 ! A1    A(2,1,7)              102.757          estimate D2E/DX2                !
 ! A2    A(2,1,10)             116.4373         estimate D2E/DX2                !
 ! A3    A(2,1,11)             108.3478         estimate D2E/DX2                !
 ! A4    A(7,1,10)             106.7278         estimate D2E/DX2                !
 ! A5    A(7,1,11)             111.873          estimate D2E/DX2                !
 ! A6    A(10,1,11)            110.4988         estimate D2E/DX2                !
 ! A7    A(1,2,3)              107.4454         estimate D2E/DX2                !
 ! A8    A(1,2,6)              100.0252         estimate D2E/DX2                !
 ! A9    A(1,2,12)             113.9531         estimate D2E/DX2                !
 ! A10   A(3,2,6)              100.0073         estimate D2E/DX2                !
 ! A11   A(3,2,12)             115.9892         estimate D2E/DX2                !
 ! A12   A(6,2,12)             117.3785         estimate D2E/DX2                !
 ! A13   A(2,3,4)              107.4972         estimate D2E/DX2                !
 ! A14   A(2,3,13)             124.1658         estimate D2E/DX2                !
 ! A15   A(4,3,13)             128.2546         estimate D2E/DX2                !
 ! A16   A(3,4,5)              107.493          estimate D2E/DX2                !
 ! A17   A(3,4,14)             128.2614         estimate D2E/DX2                !
 ! A18   A(5,4,14)             124.1635         estimate D2E/DX2                !
 ! A19   A(4,5,6)              100.0076         estimate D2E/DX2                !
 ! A20   A(4,5,7)              107.4386         estimate D2E/DX2                !
 ! A21   A(4,5,15)             115.9872         estimate D2E/DX2                !
 ! A22   A(6,5,7)              100.0236         estimate D2E/DX2                !
 ! A23   A(6,5,15)             117.3887         estimate D2E/DX2                !
 ! A24   A(7,5,15)             113.9525         estimate D2E/DX2                !
 ! A25   A(2,6,5)               93.3056         estimate D2E/DX2                !
 ! A26   A(2,6,16)             112.853          estimate D2E/DX2                !
 ! A27   A(2,6,17)             113.7146         estimate D2E/DX2                !
 ! A28   A(5,6,16)             112.8516         estimate D2E/DX2                !
 ! A29   A(5,6,17)             113.7179         estimate D2E/DX2                !
 ! A30   A(16,6,17)            109.6737         estimate D2E/DX2                !
 ! A31   A(1,7,5)              102.7625         estimate D2E/DX2                !
 ! A32   A(1,7,8)              106.7149         estimate D2E/DX2                !
 ! A33   A(1,7,18)             111.8784         estimate D2E/DX2                !
 ! A34   A(5,7,8)              116.4451         estimate D2E/DX2                !
 ! A35   A(5,7,18)             108.3452         estimate D2E/DX2                !
 ! A36   A(8,7,18)             110.4965         estimate D2E/DX2                !
 ! A37   A(7,8,9)              106.0847         estimate D2E/DX2                !
 ! A38   A(7,8,19)             109.3679         estimate D2E/DX2                !
 ! A39   A(7,8,20)             111.8563         estimate D2E/DX2                !
 ! A40   A(9,8,19)             109.5987         estimate D2E/DX2                !
 ! A41   A(9,8,20)             111.9809         estimate D2E/DX2                !
 ! A42   A(19,8,20)            107.9254         estimate D2E/DX2                !
 ! A43   A(8,9,10)             104.8767         estimate D2E/DX2                !
 ! A44   A(8,9,21)             111.6913         estimate D2E/DX2                !
 ! A45   A(8,9,22)             110.2832         estimate D2E/DX2                !
 ! A46   A(10,9,21)            111.6944         estimate D2E/DX2                !
 ! A47   A(10,9,22)            110.2885         estimate D2E/DX2                !
 ! A48   A(21,9,22)            108.0135         estimate D2E/DX2                !
 ! A49   A(1,10,9)             106.0809         estimate D2E/DX2                !
 ! A50   A(1,10,23)            111.8584         estimate D2E/DX2                !
 ! A51   A(1,10,24)            109.3583         estimate D2E/DX2                !
 ! A52   A(9,10,23)            111.9912         estimate D2E/DX2                !
 ! A53   A(9,10,24)            109.6019         estimate D2E/DX2                !
 ! A54   A(23,10,24)           107.9229         estimate D2E/DX2                !
 ! D1    D(7,1,2,3)            -66.7792         estimate D2E/DX2                !
 ! D2    D(7,1,2,6)             37.1387         estimate D2E/DX2                !
 ! D3    D(7,1,2,12)           163.2632         estimate D2E/DX2                !
 ! D4    D(10,1,2,3)            49.4619         estimate D2E/DX2                !
 ! D5    D(10,1,2,6)           153.3798         estimate D2E/DX2                !
 ! D6    D(10,1,2,12)          -80.4958         estimate D2E/DX2                !
 ! D7    D(11,1,2,3)           174.6969         estimate D2E/DX2                !
 ! D8    D(11,1,2,6)           -81.3852         estimate D2E/DX2                !
 ! D9    D(11,1,2,12)           44.7393         estimate D2E/DX2                !
 ! D10   D(2,1,7,5)             -0.0035         estimate D2E/DX2                !
 ! D11   D(2,1,7,8)            123.0064         estimate D2E/DX2                !
 ! D12   D(2,1,7,18)          -116.0256         estimate D2E/DX2                !
 ! D13   D(10,1,7,5)          -123.0078         estimate D2E/DX2                !
 ! D14   D(10,1,7,8)             0.0022         estimate D2E/DX2                !
 ! D15   D(10,1,7,18)          120.9702         estimate D2E/DX2                !
 ! D16   D(11,1,7,5)           116.0161         estimate D2E/DX2                !
 ! D17   D(11,1,7,8)          -120.974          estimate D2E/DX2                !
 ! D18   D(11,1,7,18)           -0.0059         estimate D2E/DX2                !
 ! D19   D(2,1,10,9)           -95.4597         estimate D2E/DX2                !
 ! D20   D(2,1,10,23)           26.921          estimate D2E/DX2                !
 ! D21   D(2,1,10,24)          146.4185         estimate D2E/DX2                !
 ! D22   D(7,1,10,9)            18.5528         estimate D2E/DX2                !
 ! D23   D(7,1,10,23)          140.9336         estimate D2E/DX2                !
 ! D24   D(7,1,10,24)          -99.5689         estimate D2E/DX2                !
 ! D25   D(11,1,10,9)          140.4012         estimate D2E/DX2                !
 ! D26   D(11,1,10,23)         -97.2181         estimate D2E/DX2                !
 ! D27   D(11,1,10,24)          22.2794         estimate D2E/DX2                !
 ! D28   D(1,2,3,4)             70.0129         estimate D2E/DX2                !
 ! D29   D(1,2,3,13)          -106.923          estimate D2E/DX2                !
 ! D30   D(6,2,3,4)            -33.9178         estimate D2E/DX2                !
 ! D31   D(6,2,3,13)           149.1464         estimate D2E/DX2                !
 ! D32   D(12,2,3,4)          -161.1847         estimate D2E/DX2                !
 ! D33   D(12,2,3,13)           21.8794         estimate D2E/DX2                !
 ! D34   D(1,2,6,5)            -59.07           estimate D2E/DX2                !
 ! D35   D(1,2,6,16)          -175.5875         estimate D2E/DX2                !
 ! D36   D(1,2,6,17)            58.6684         estimate D2E/DX2                !
 ! D37   D(3,2,6,5)             50.8278         estimate D2E/DX2                !
 ! D38   D(3,2,6,16)           -65.6897         estimate D2E/DX2                !
 ! D39   D(3,2,6,17)           168.5662         estimate D2E/DX2                !
 ! D40   D(12,2,6,5)           177.1613         estimate D2E/DX2                !
 ! D41   D(12,2,6,16)           60.6438         estimate D2E/DX2                !
 ! D42   D(12,2,6,17)          -65.1003         estimate D2E/DX2                !
 ! D43   D(2,3,4,5)              0.0049         estimate D2E/DX2                !
 ! D44   D(2,3,4,14)          -176.7703         estimate D2E/DX2                !
 ! D45   D(13,3,4,5)           176.7761         estimate D2E/DX2                !
 ! D46   D(13,3,4,14)            0.0009         estimate D2E/DX2                !
 ! D47   D(3,4,5,6)             33.9095         estimate D2E/DX2                !
 ! D48   D(3,4,5,7)            -70.0177         estimate D2E/DX2                !
 ! D49   D(3,4,5,15)           161.1882         estimate D2E/DX2                !
 ! D50   D(14,4,5,6)          -149.1505         estimate D2E/DX2                !
 ! D51   D(14,4,5,7)           106.9223         estimate D2E/DX2                !
 ! D52   D(14,4,5,15)          -21.8718         estimate D2E/DX2                !
 ! D53   D(4,5,6,2)            -50.8246         estimate D2E/DX2                !
 ! D54   D(4,5,6,16)            65.6941         estimate D2E/DX2                !
 ! D55   D(4,5,6,17)          -168.5601         estimate D2E/DX2                !
 ! D56   D(7,5,6,2)             59.0658         estimate D2E/DX2                !
 ! D57   D(7,5,6,16)           175.5844         estimate D2E/DX2                !
 ! D58   D(7,5,6,17)           -58.6698         estimate D2E/DX2                !
 ! D59   D(15,5,6,2)          -177.1618         estimate D2E/DX2                !
 ! D60   D(15,5,6,16)          -60.6432         estimate D2E/DX2                !
 ! D61   D(15,5,6,17)           65.1026         estimate D2E/DX2                !
 ! D62   D(4,5,7,1)             66.7835         estimate D2E/DX2                !
 ! D63   D(4,5,7,8)            -49.4493         estimate D2E/DX2                !
 ! D64   D(4,5,7,18)          -174.6849         estimate D2E/DX2                !
 ! D65   D(6,5,7,1)            -37.1323         estimate D2E/DX2                !
 ! D66   D(6,5,7,8)           -153.3651         estimate D2E/DX2                !
 ! D67   D(6,5,7,18)            81.3993         estimate D2E/DX2                !
 ! D68   D(15,5,7,1)          -163.2677         estimate D2E/DX2                !
 ! D69   D(15,5,7,8)            80.4995         estimate D2E/DX2                !
 ! D70   D(15,5,7,18)          -44.7361         estimate D2E/DX2                !
 ! D71   D(1,7,8,9)            -18.555          estimate D2E/DX2                !
 ! D72   D(1,7,8,19)            99.5701         estimate D2E/DX2                !
 ! D73   D(1,7,8,20)          -140.9244         estimate D2E/DX2                !
 ! D74   D(5,7,8,9)             95.4601         estimate D2E/DX2                !
 ! D75   D(5,7,8,19)          -146.4149         estimate D2E/DX2                !
 ! D76   D(5,7,8,20)           -26.9093         estimate D2E/DX2                !
 ! D77   D(18,7,8,9)          -140.4003         estimate D2E/DX2                !
 ! D78   D(18,7,8,19)          -22.2752         estimate D2E/DX2                !
 ! D79   D(18,7,8,20)           97.2303         estimate D2E/DX2                !
 ! D80   D(7,8,9,10)            29.9946         estimate D2E/DX2                !
 ! D81   D(7,8,9,21)           151.1453         estimate D2E/DX2                !
 ! D82   D(7,8,9,22)           -88.7344         estimate D2E/DX2                !
 ! D83   D(19,8,9,10)          -87.9772         estimate D2E/DX2                !
 ! D84   D(19,8,9,21)           33.1735         estimate D2E/DX2                !
 ! D85   D(19,8,9,22)          153.2938         estimate D2E/DX2                !
 ! D86   D(20,8,9,10)          152.2848         estimate D2E/DX2                !
 ! D87   D(20,8,9,21)          -86.5645         estimate D2E/DX2                !
 ! D88   D(20,8,9,22)           33.5558         estimate D2E/DX2                !
 ! D89   D(8,9,10,1)           -29.9912         estimate D2E/DX2                !
 ! D90   D(8,9,10,23)         -152.2875         estimate D2E/DX2                !
 ! D91   D(8,9,10,24)           87.9689         estimate D2E/DX2                !
 ! D92   D(21,9,10,1)         -151.1398         estimate D2E/DX2                !
 ! D93   D(21,9,10,23)          86.5638         estimate D2E/DX2                !
 ! D94   D(21,9,10,24)         -33.1798         estimate D2E/DX2                !
 ! D95   D(22,9,10,1)           88.7343         estimate D2E/DX2                !
 ! D96   D(22,9,10,23)         -33.5621         estimate D2E/DX2                !
 ! D97   D(22,9,10,24)        -153.3057         estimate D2E/DX2                !
 --------------------------------------------------------------------------------
 Trust Radius=3.00D-01 FncErr=1.00D-07 GrdErr=1.00D-06 EigMax=2.50D+02 EigMin=1.00D-04
 Number of steps in this run=    144 maximum allowed number of steps=    144.
 GradGradGradGradGradGradGradGradGradGradGradGradGradGradGradGradGradGrad

                          Input orientation:                          
 ---------------------------------------------------------------------
 Center     Atomic      Atomic             Coordinates (Angstroms)
 Number     Number       Type             X           Y           Z
 ---------------------------------------------------------------------
      1          6           0       -0.277900    0.772900   -0.871500
      2          6           0        1.061700    1.115800   -0.166600
      3          6           0        0.947400    0.663300    1.264200
      4          6           0        0.947500   -0.663300    1.264200
      5          6           0        1.062000   -1.115700   -0.166700
      6          6           0        1.952500    0.000200   -0.728700
      7          6           0       -0.277700   -0.773000   -0.871500
      8          6           0       -1.557700   -1.213700   -0.154900
      9          6           0       -2.033700    0.000000    0.648000
     10          6           0       -1.557900    1.213600   -0.154900
     11          1           0       -0.247300    1.179800   -1.884600
     12          1           0        1.390100    2.142100   -0.317300
     13          1           0        0.832800    1.329000    2.100700
     14          1           0        0.833000   -1.329100    2.100600
     15          1           0        1.390500   -2.141900   -0.317400
     16          1           0        2.953300    0.000300   -0.297900
     17          1           0        2.021200    0.000300   -1.815800
     18          1           0       -0.247100   -1.180000   -1.884600
     19          1           0       -2.313300   -1.481900   -0.895700
     20          1           0       -1.388200   -2.082100    0.480700
     21          1           0       -3.116500   -0.000100    0.774600
     22          1           0       -1.579000    0.000000    1.637400
     23          1           0       -1.388500    2.082200    0.480500
     24          1           0       -2.313400    1.481600   -0.895800
 ---------------------------------------------------------------------
                    Distance matrix (angstroms):
                    1          2          3          4          5
     1  C    0.000000
     2  C    1.552093   0.000000
     3  C    2.464668   1.504995   0.000000
     4  C    2.850525   2.285919   1.326600   0.000000
     5  C    2.420513   2.231500   2.285924   1.505075   0.000000
     6  C    2.364771   1.534290   2.328428   2.328499   1.534297
     7  C    1.545900   2.420422   2.850446   2.464622   1.552090
     8  C    2.469409   3.505419   3.436932   2.931350   2.621559
     9  C    2.447261   3.389703   3.115546   3.115642   3.389968
    10  C    1.531709   2.621451   2.931417   3.437096   3.505660
    11  H    1.092188   2.160810   3.407201   3.839206   3.151947
    12  H    2.228019   1.088048   2.209972   3.250739   3.277742
    13  H    3.221316   2.288777   1.075185   2.163827   3.342184
    14  H    3.806032   3.342160   2.163865   1.075158   2.288805
    15  H    3.403916   3.277722   3.250683   2.209970   1.087984
    16  H    3.371436   2.199939   2.627425   2.627500   2.199928
    17  H    2.602782   2.210168   3.328516   3.328603   2.210215
    18  H    2.200259   3.152012   3.839209   3.407197   2.160800
    19  H    3.037690   4.320909   4.460854   3.996009   3.472491
    20  H    3.348468   4.080144   3.688648   2.842949   2.712293
    21  H    3.371175   4.425884   4.146696   4.146762   4.426112
    22  H    2.929985   3.387141   2.638549   2.638645   3.387395
    23  H    2.185315   2.712222   2.843219   3.689018   4.080488
    24  H    2.155483   3.472296   3.996002   4.460904   4.320981
                    6          7          8          9         10
     6  C    0.000000
     7  C    2.364746   0.000000
     8  C    3.758231   1.531709   0.000000
     9  C    4.217238   2.447436   1.531108   0.000000
    10  C    3.758257   2.469617   2.427300   1.530967   0.000000
    11  H    2.750760   2.200164   3.230767   3.316205   2.170409
    12  H    2.252394   3.403895   4.469596   4.152445   3.095027
    13  H    3.320383   3.805994   4.155424   3.477557   3.288844
    14  H    3.320430   3.221223   3.288775   3.477718   4.155599
    15  H    2.252466   2.227960   3.095132   4.152695   4.469771
    16  H    1.089582   3.371405   4.673689   5.075913   4.673700
    17  H    1.089269   2.602813   4.128064   4.744737   4.128031
    18  H    2.750858   1.092226   2.170408   3.316384   3.231003
    19  H    4.519022   2.155642   1.091626   2.158058   2.895710
    20  H    4.118118   2.185268   1.089420   2.186275   3.360718
    21  H    5.287218   3.371321   2.183267   1.090176   2.183179
    22  H    4.250873   2.930101   2.164685   1.088882   2.164627
    23  H    4.118151   3.348723   3.360851   2.186297   1.089447
    24  H    4.518890   3.037744   2.895627   2.157936   1.091575
                   11         12         13         14         15
    11  H    0.000000
    12  H    2.462423   0.000000
    13  H    4.131766   2.611214   0.000000
    14  H    4.831506   4.266829   2.658100   0.000000
    15  H    4.021467   4.284000   4.266777   2.611163   0.000000
    16  H    3.762004   2.651656   3.466301   3.466378   2.651744
    17  H    2.557742   2.689070   4.303105   4.303175   2.689239
    18  H    2.359800   4.021592   4.831551   4.131666   2.462337
    19  H    3.511542   5.213741   5.174700   4.347455   3.806332
    20  H    4.187635   5.118556   4.380964   2.850406   2.891663
    21  H    4.086052   5.107907   4.372873   4.372993   5.108113
    22  H    3.945863   4.150301   2.792430   2.792634   4.150531
    23  H    2.776754   2.891486   2.850707   4.381410   5.118838
    24  H    2.310320   3.806157   4.347513   5.174773   5.213749
                   16         17         18         19         20
    16  H    0.000000
    17  H    1.781244   0.000000
    18  H    3.762085   2.557934   0.000000
    19  H    5.503758   4.672407   2.310465   0.000000
    20  H    4.877625   4.608070   2.776785   1.763669   0.000000
    21  H    6.163824   5.753793   4.086192   2.372923   2.721787
    22  H    4.928197   4.988590   3.945991   3.025197   2.389456
    23  H    4.877647   4.607967   4.187892   3.930902   4.164300
    24  H    5.503623   4.672195   3.511614   2.963500   3.930738
                   21         22         23         24
    21  H    0.000000
    22  H    1.763046   0.000000
    23  H    2.721847   2.389616   0.000000
    24  H    2.372897   3.025159   1.763622   0.000000
 Stoichiometry    C10H14
 Framework group  C1[X(C10H14)]
 Deg. of freedom    66
 Full point group                 C1      NOp   1
 Largest Abelian subgroup         C1      NOp   1
 Largest concise Abelian subgroup C1      NOp   1
                         Standard orientation:                         
 ---------------------------------------------------------------------
 Center     Atomic      Atomic             Coordinates (Angstroms)
 Number     Number       Type             X           Y           Z
 ---------------------------------------------------------------------
      1          6           0        0.240811   -0.772901   -0.871081
      2          6           0       -1.085745   -1.115794   -0.141926
      3          6           0       -0.945439   -0.663274    1.286552
      4          6           0       -0.945543    0.663326    1.286535
      5          6           0       -1.086053    1.115706   -0.142052
      6          6           0       -1.986625   -0.000205   -0.687745
      7          6           0        0.240606    0.772999   -0.871099
      8          6           0        1.533428    1.213713   -0.177907
      9          6           0        2.023957    0.000025    0.616219
     10          6           0        1.533635   -1.213587   -0.177876
     11          1           0        0.191789   -1.179815   -1.883451
     12          1           0       -1.416829   -2.142097   -0.286613
     13          1           0       -0.815640   -1.328962    2.120838
     14          1           0       -0.815850    1.329138    2.120705
     15          1           0       -1.417243    2.141903   -0.286766
     16          1           0       -2.979423   -0.000301   -0.238812
     17          1           0       -2.075088   -0.000320   -1.773416
     18          1           0        0.191582    1.179985   -1.883481
     19          1           0        2.275427    1.481904   -0.932332
     20          1           0        1.375515    2.082121    0.460659
     21          1           0        3.108881    0.000130    0.723103
     22          1           0        1.587329    0.000038    1.613726
     23          1           0        1.375823   -2.082179    0.460512
     24          1           0        2.275534   -1.481596   -0.932392
 ---------------------------------------------------------------------
 Rotational constants (GHZ):           2.3704238           1.4705265           1.3722675
 Standard basis: def2TZVP (5D, 7F)
 There are   444 symmetry adapted cartesian basis functions of A   symmetry.
 There are   394 symmetry adapted basis functions of A   symmetry.
   394 basis functions,   622 primitive gaussians,   444 cartesian basis functions
    37 alpha electrons       37 beta electrons
       nuclear repulsion energy       567.0676416199 Hartrees.
 NAtoms=   24 NActive=   24 NUniq=   24 SFac= 1.00D+00 NAtFMM=   60 NAOKFM=F Big=F
 Integral buffers will be    131072 words long.
 Raffenetti 2 integral format.
 Two-electron integral symmetry is turned on.
 One-electron integrals computed using PRISM.
   1 Symmetry operations used in ECPInt.
 ECPInt:  NShTT=   13861 NPrTT=   40732 LenC2=   13724 LenP2D=   32838.
 LDataN:  DoStor=T MaxTD1= 6 Len=  172
 NBasis=   394 RedAO= T EigKep=  1.63D-05  NBF=   394
 NBsUse=   394 1.00D-06 EigRej= -1.00D+00 NBFU=   394
 ExpMin= 9.52D-02 ExpMax= 1.36D+04 ExpMxC= 4.63D+02 IAcc=3 IRadAn=         5 AccDes= 0.00D+00
 Harris functional with IExCor=  402 and IRadAn=       5 diagonalized for initial guess.
 HarFok:  IExCor=  402 AccDes= 0.00D+00 IRadAn=         5 IDoV= 1 UseB2=F ITyADJ=14
 ICtDFT=  3500011 ScaDFX=  1.000000  1.000000  1.000000  1.000000
 FoFCou: FMM=F IPFlag=           0 FMFlag=      100000 FMFlg1=           0
         NFxFlg=           0 DoJE=T BraDBF=F KetDBF=T FulRan=T
         wScrn=  0.000000 ICntrl=       500 IOpCl=  0 I1Cent=   200000004 NGrid=           0
         NMat0=    1 NMatS0=      1 NMatT0=    0 NMatD0=    1 NMtDS0=    0 NMtDT0=    0
 Petite list used in FoFCou.
 Requested convergence on RMS density matrix=1.00D-08 within 128 cycles.
 Requested convergence on MAX density matrix=1.00D-06.
 Requested convergence on             energy=1.00D-06.
 No special actions if energy rises.
 Integral accuracy reduced to 1.0D-05 until final iterations.
 Initial convergence to 1.0D-05 achieved.  Increase integral accuracy.
 SCF Done:  E(RB3LYP) =  -389.591093473     A.U. after   13 cycles
            NFock= 13  Conv=0.87D-08     -V/T= 2.0047

 **********************************************************************

            Population analysis using the SCF Density.

 **********************************************************************

 Orbital symmetries:
       Occupied  (A) (A) (A) (A) (A) (A) (A) (A) (A) (A) (A) (A)
                 (A) (A) (A) (A) (A) (A) (A) (A) (A) (A) (A) (A)
                 (A) (A) (A) (A) (A) (A) (A) (A) (A) (A) (A) (A)
                 (A)
       Virtual   (A) (A) (A) (A) (A) (A) (A) (A) (A) (A) (A) (A)
                 (A) (A) (A) (A) (A) (A) (A) (A) (A) (A) (A) (A)
                 (A) (A) (A) (A) (A) (A) (A) (A) (A) (A) (A) (A)
                 (A) (A) (A) (A) (A) (A) (A) (A) (A) (A) (A) (A)
                 (A) (A) (A) (A) (A) (A) (A) (A) (A) (A) (A) (A)
                 (A) (A) (A) (A) (A) (A) (A) (A) (A) (A) (A) (A)
                 (A) (A) (A) (A) (A) (A) (A) (A) (A) (A) (A) (A)
                 (A) (A) (A) (A) (A) (A) (A) (A) (A) (A) (A) (A)
                 (A) (A) (A) (A) (A) (A) (A) (A) (A) (A) (A) (A)
                 (A) (A) (A) (A) (A) (A) (A) (A) (A) (A) (A) (A)
                 (A) (A) (A) (A) (A) (A) (A) (A) (A) (A) (A) (A)
                 (A) (A) (A) (A) (A) (A) (A) (A) (A) (A) (A) (A)
                 (A) (A) (A) (A) (A) (A) (A) (A) (A) (A) (A) (A)
                 (A) (A) (A) (A) (A) (A) (A) (A) (A) (A) (A) (A)
                 (A) (A) (A) (A) (A) (A) (A) (A) (A) (A) (A) (A)
                 (A) (A) (A) (A) (A) (A) (A) (A) (A) (A) (A) (A)
                 (A) (A) (A) (A) (A) (A) (A) (A) (A) (A) (A) (A)
                 (A) (A) (A) (A) (A) (A) (A) (A) (A) (A) (A) (A)
                 (A) (A) (A) (A) (A) (A) (A) (A) (A) (A) (A) (A)
                 (A) (A) (A) (A) (A) (A) (A) (A) (A) (A) (A) (A)
                 (A) (A) (A) (A) (A) (A) (A) (A) (A) (A) (A) (A)
                 (A) (A) (A) (A) (A) (A) (A) (A) (A) (A) (A) (A)
                 (A) (A) (A) (A) (A) (A) (A) (A) (A) (A) (A) (A)
                 (A) (A) (A) (A) (A) (A) (A) (A) (A) (A) (A) (A)
                 (A) (A) (A) (A) (A) (A) (A) (A) (A) (A) (A) (A)
                 (A) (A) (A) (A) (A) (A) (A) (A) (A) (A) (A) (A)
                 (A) (A) (A) (A) (A) (A) (A) (A) (A) (A) (A) (A)
                 (A) (A) (A) (A) (A) (A) (A) (A) (A) (A) (A) (A)
                 (A) (A) (A) (A) (A) (A) (A) (A) (A) (A) (A) (A)
                 (A) (A) (A) (A) (A) (A) (A) (A) (A)
 The electronic state is 1-A.
 Alpha  occ. eigenvalues --  -10.16966 -10.16965 -10.16353 -10.16333 -10.16093
 Alpha  occ. eigenvalues --  -10.15960 -10.15866 -10.15557 -10.15555 -10.15202
 Alpha  occ. eigenvalues --   -0.89469  -0.80912  -0.73769  -0.73168  -0.67930
 Alpha  occ. eigenvalues --   -0.66963  -0.57307  -0.56017  -0.55642  -0.52044
 Alpha  occ. eigenvalues --   -0.49591  -0.48071  -0.47175  -0.43580  -0.41584
 Alpha  occ. eigenvalues --   -0.39587  -0.37785  -0.36859  -0.34935  -0.34880
 Alpha  occ. eigenvalues --   -0.33013  -0.32347  -0.31542  -0.31530  -0.31280
 Alpha  occ. eigenvalues --   -0.29629  -0.23764
 Alpha virt. eigenvalues --    0.00407   0.02948   0.05053   0.05814   0.06562
 Alpha virt. eigenvalues --    0.08076   0.08446   0.08869   0.10131   0.10708
 Alpha virt. eigenvalues --    0.11194   0.12851   0.13582   0.14201   0.14595
 Alpha virt. eigenvalues --    0.15095   0.16024   0.16060   0.17212   0.17322
 Alpha virt. eigenvalues --    0.18348   0.18483   0.22103   0.22763   0.23109
 Alpha virt. eigenvalues --    0.23969   0.24030   0.25281   0.26200   0.27961
 Alpha virt. eigenvalues --    0.28233   0.28752   0.30393   0.31123   0.33132
 Alpha virt. eigenvalues --    0.33920   0.35416   0.36887   0.38438   0.38450
 Alpha virt. eigenvalues --    0.39399   0.39506   0.39764   0.40713   0.41147
 Alpha virt. eigenvalues --    0.41392   0.41626   0.41983   0.43074   0.43474
 Alpha virt. eigenvalues --    0.43503   0.45272   0.45637   0.45953   0.46136
 Alpha virt. eigenvalues --    0.46164   0.47106   0.48011   0.48049   0.48510
 Alpha virt. eigenvalues --    0.48978   0.49328   0.50666   0.51329   0.52624
 Alpha virt. eigenvalues --    0.54094   0.55344   0.56872   0.57052   0.59413
 Alpha virt. eigenvalues --    0.60850   0.63976   0.64844   0.65619   0.69074
 Alpha virt. eigenvalues --    0.69803   0.71467   0.74844   0.74998   0.79842
 Alpha virt. eigenvalues --    0.79880   0.80325   0.82417   0.86379   0.86983
 Alpha virt. eigenvalues --    0.86985   0.88721   0.90490   0.91291   0.94483
 Alpha virt. eigenvalues --    0.94591   0.95602   0.97890   0.99462   0.99716
 Alpha virt. eigenvalues --    1.00692   1.01970   1.03276   1.04098   1.05128
 Alpha virt. eigenvalues --    1.07209   1.07851   1.11428   1.11703   1.13530
 Alpha virt. eigenvalues --    1.13808   1.14955   1.17822   1.17916   1.19045
 Alpha virt. eigenvalues --    1.20113   1.20365   1.21670   1.22733   1.23938
 Alpha virt. eigenvalues --    1.25990   1.26167   1.26819   1.28258   1.29332
 Alpha virt. eigenvalues --    1.29618   1.30162   1.31452   1.33197   1.38232
 Alpha virt. eigenvalues --    1.39056   1.42124   1.42746   1.43696   1.47844
 Alpha virt. eigenvalues --    1.51861   1.52404   1.53216   1.54672   1.55380
 Alpha virt. eigenvalues --    1.59740   1.59748   1.60516   1.61162   1.62345
 Alpha virt. eigenvalues --    1.64220   1.65043   1.65763   1.68008   1.68518
 Alpha virt. eigenvalues --    1.73496   1.74686   1.78434   1.80268   1.80727
 Alpha virt. eigenvalues --    1.81834   1.82285   1.87177   1.88428   1.90090
 Alpha virt. eigenvalues --    1.91197   1.93057   1.96071   1.97283   1.98240
 Alpha virt. eigenvalues --    1.99895   2.00774   2.01725   2.02599   2.03131
 Alpha virt. eigenvalues --    2.05372   2.07333   2.10866   2.12844   2.16326
 Alpha virt. eigenvalues --    2.18062   2.19220   2.20292   2.21745   2.23153
 Alpha virt. eigenvalues --    2.24422   2.25184   2.25631   2.26778   2.30596
 Alpha virt. eigenvalues --    2.32373   2.32893   2.36200   2.37242   2.40336
 Alpha virt. eigenvalues --    2.40629   2.41065   2.41485   2.44339   2.44877
 Alpha virt. eigenvalues --    2.47563   2.48697   2.49457   2.50801   2.52906
 Alpha virt. eigenvalues --    2.53220   2.55973   2.57014   2.58475   2.59173
 Alpha virt. eigenvalues --    2.62045   2.62476   2.63390   2.65100   2.65712
 Alpha virt. eigenvalues --    2.66998   2.67683   2.69602   2.69895   2.70746
 Alpha virt. eigenvalues --    2.73907   2.75977   2.77629   2.78866   2.79388
 Alpha virt. eigenvalues --    2.79439   2.82531   2.84364   2.85574   2.88354
 Alpha virt. eigenvalues --    2.89203   2.89711   2.91270   2.91709   2.92784
 Alpha virt. eigenvalues --    2.93344   2.95118   2.99200   3.01007   3.01083
 Alpha virt. eigenvalues --    3.02386   3.02918   3.03384   3.04138   3.05078
 Alpha virt. eigenvalues --    3.07129   3.08351   3.09979   3.11251   3.12340
 Alpha virt. eigenvalues --    3.13695   3.14868   3.15315   3.18506   3.20023
 Alpha virt. eigenvalues --    3.22221   3.23322   3.25704   3.28311   3.28679
 Alpha virt. eigenvalues --    3.29762   3.29898   3.32870   3.33214   3.34423
 Alpha virt. eigenvalues --    3.34625   3.36189   3.36841   3.39322   3.40232
 Alpha virt. eigenvalues --    3.43408   3.44954   3.45421   3.47137   3.47303
 Alpha virt. eigenvalues --    3.49283   3.49475   3.50353   3.53327   3.55365
 Alpha virt. eigenvalues --    3.56148   3.57309   3.57876   3.60454   3.63109
 Alpha virt. eigenvalues --    3.63976   3.65939   3.67647   3.68621   3.70471
 Alpha virt. eigenvalues --    3.73309   3.76370   3.76823   3.78386   3.79883
 Alpha virt. eigenvalues --    3.80913   3.81964   3.86488   3.88548   3.89736
 Alpha virt. eigenvalues --    3.90833   3.93209   3.96796   3.98083   3.99528
 Alpha virt. eigenvalues --    4.00305   4.00894   4.02024   4.02292   4.06112
 Alpha virt. eigenvalues --    4.09533   4.12263   4.13653   4.17722   4.17797
 Alpha virt. eigenvalues --    4.20527   4.23607   4.23941   4.24026   4.24299
 Alpha virt. eigenvalues --    4.27867   4.29310   4.32551   4.35315   4.36225
 Alpha virt. eigenvalues --    4.37102   4.39851   4.42821   4.42946   4.47358
 Alpha virt. eigenvalues --    4.47585   4.48259   4.49716   4.52143   4.52605
 Alpha virt. eigenvalues --    4.54836   4.57449   4.63199   4.63537   4.67698
 Alpha virt. eigenvalues --    4.69318   4.73832   4.81060   4.83350   4.90737
 Alpha virt. eigenvalues --    4.93101   4.93605   4.97594   4.99028   5.01702
 Alpha virt. eigenvalues --    5.02989   5.07341   5.09303   5.09563   5.15893
 Alpha virt. eigenvalues --    5.26416   5.30340  22.36000  22.41876  22.54077
 Alpha virt. eigenvalues --   22.55688  22.59672  22.62601  22.74925  22.80977
 Alpha virt. eigenvalues --   22.84966  22.92111
          Condensed to atoms (all electrons):
               1          2          3          4          5          6
     1  C    4.993541   0.352614  -0.004826  -0.049278  -0.021861  -0.075544
     2  C    0.352614   4.915567   0.275731  -0.063560  -0.066528   0.322356
     3  C   -0.004826   0.275731   5.164548   0.591194  -0.063528  -0.033643
     4  C   -0.049278  -0.063560   0.591194   5.164575   0.275721  -0.033651
     5  C   -0.021861  -0.066528  -0.063528   0.275721   4.915543   0.322403
     6  C   -0.075544   0.322356  -0.033643  -0.033651   0.322403   5.000686
     7  C    0.353906  -0.021863  -0.049311  -0.004855   0.352616  -0.075582
     8  C   -0.068332   0.011065   0.006805   0.009763  -0.045004   0.020347
     9  C   -0.057345   0.017923  -0.051629  -0.051624   0.017896  -0.011091
    10  C    0.320959  -0.045028   0.009765   0.006811   0.011056   0.020349
    11  H    0.390112  -0.043963   0.006673   0.004564  -0.006180   0.001939
    12  H   -0.046949   0.423548  -0.057218   0.013694   0.007315  -0.040635
    13  H    0.001651  -0.055906   0.432580  -0.045092   0.008678   0.008833
    14  H   -0.001762   0.008675  -0.045075   0.432568  -0.055890   0.008828
    15  H    0.010679   0.007317   0.013690  -0.057219   0.423571  -0.040633
    16  H    0.007964  -0.015213  -0.002885  -0.002881  -0.015224   0.375055
    17  H    0.001093  -0.037191   0.007568   0.007568  -0.037190   0.396612
    18  H   -0.025354  -0.006185   0.004565   0.006680  -0.044003   0.001949
    19  H    0.002594   0.000001  -0.000604   0.000929   0.006739  -0.000993
    20  H    0.008231  -0.002589   0.002582   0.004200  -0.009279   0.000734
    21  H    0.010057  -0.000350   0.001137   0.001137  -0.000350   0.000130
    22  H    0.004635  -0.002298  -0.000868  -0.000882  -0.002287  -0.000018
    23  H   -0.041867  -0.009274   0.004193   0.002583  -0.002588   0.000735
    24  H   -0.034580   0.006740   0.000931  -0.000605   0.000003  -0.000994
               7          8          9         10         11         12
     1  C    0.353906  -0.068332  -0.057345   0.320959   0.390112  -0.046949
     2  C   -0.021863   0.011065   0.017923  -0.045028  -0.043963   0.423548
     3  C   -0.049311   0.006805  -0.051629   0.009765   0.006673  -0.057218
     4  C   -0.004855   0.009763  -0.051624   0.006811   0.004564   0.013694
     5  C    0.352616  -0.045004   0.017896   0.011056  -0.006180   0.007315
     6  C   -0.075582   0.020347  -0.011091   0.020349   0.001939  -0.040635
     7  C    4.993538   0.320961  -0.057303  -0.068253  -0.025373   0.010682
     8  C    0.320961   5.003515   0.324715  -0.082619   0.007685  -0.000455
     9  C   -0.057303   0.324715   5.026908   0.324636   0.006292  -0.000698
    10  C   -0.068253  -0.082619   0.324636   5.003495  -0.045535  -0.003626
    11  H   -0.025373   0.007685   0.006292  -0.045535   0.665029  -0.001959
    12  H    0.010682  -0.000455  -0.000698  -0.003626  -0.001959   0.628092
    13  H   -0.001764   0.000351  -0.003590   0.003556  -0.000576  -0.003808
    14  H    0.001648   0.003556  -0.003588   0.000351   0.000148  -0.000215
    15  H   -0.046952  -0.003626  -0.000697  -0.000454  -0.000716  -0.000289
    16  H    0.007968  -0.000956   0.000713  -0.000956  -0.000283  -0.002574
    17  H    0.001101   0.000369   0.000425   0.000370   0.000416  -0.002438
    18  H    0.390116  -0.045533   0.006289   0.007677  -0.014289  -0.000716
    19  H   -0.034570   0.398342  -0.036630   0.002613   0.000254   0.000023
    20  H   -0.041864   0.403084  -0.041557   0.012610  -0.000377   0.000027
    21  H    0.010052  -0.040109   0.406034  -0.040106  -0.000375   0.000021
    22  H    0.004619  -0.039419   0.413757  -0.039428  -0.000347   0.000038
    23  H    0.008227   0.012606  -0.041544   0.403104   0.004485   0.003766
    24  H    0.002586   0.002611  -0.036616   0.398350  -0.013648  -0.000273
              13         14         15         16         17         18
     1  C    0.001651  -0.001762   0.010679   0.007964   0.001093  -0.025354
     2  C   -0.055906   0.008675   0.007317  -0.015213  -0.037191  -0.006185
     3  C    0.432580  -0.045075   0.013690  -0.002885   0.007568   0.004565
     4  C   -0.045092   0.432568  -0.057219  -0.002881   0.007568   0.006680
     5  C    0.008678  -0.055890   0.423571  -0.015224  -0.037190  -0.044003
     6  C    0.008833   0.008828  -0.040633   0.375055   0.396612   0.001949
     7  C   -0.001764   0.001648  -0.046952   0.007968   0.001101   0.390116
     8  C    0.000351   0.003556  -0.003626  -0.000956   0.000369  -0.045533
     9  C   -0.003590  -0.003588  -0.000697   0.000713   0.000425   0.006289
    10  C    0.003556   0.000351  -0.000454  -0.000956   0.000370   0.007677
    11  H   -0.000576   0.000148  -0.000716  -0.000283   0.000416  -0.014289
    12  H   -0.003808  -0.000215  -0.000289  -0.002574  -0.002438  -0.000716
    13  H    0.561041  -0.006569  -0.000215  -0.000196  -0.000324   0.000148
    14  H   -0.006569   0.561009  -0.003805  -0.000195  -0.000324  -0.000576
    15  H   -0.000215  -0.003805   0.628054  -0.002573  -0.002437  -0.001960
    16  H   -0.000196  -0.000195  -0.002573   0.597884  -0.028465  -0.000283
    17  H   -0.000324  -0.000324  -0.002437  -0.028465   0.614572   0.000414
    18  H    0.000148  -0.000576  -0.001960  -0.000283   0.000414   0.665047
    19  H   -0.000006   0.000110  -0.000273   0.000027  -0.000042  -0.013648
    20  H   -0.000024  -0.001045   0.003765  -0.000058  -0.000049   0.004487
    21  H    0.000059   0.000059   0.000021  -0.000006  -0.000004  -0.000375
    22  H    0.001032   0.001031   0.000038  -0.000005  -0.000030  -0.000347
    23  H   -0.001045  -0.000024   0.000027  -0.000058  -0.000049  -0.000377
    24  H    0.000110  -0.000006   0.000023   0.000027  -0.000042   0.000254
              19         20         21         22         23         24
     1  C    0.002594   0.008231   0.010057   0.004635  -0.041867  -0.034580
     2  C    0.000001  -0.002589  -0.000350  -0.002298  -0.009274   0.006740
     3  C   -0.000604   0.002582   0.001137  -0.000868   0.004193   0.000931
     4  C    0.000929   0.004200   0.001137  -0.000882   0.002583  -0.000605
     5  C    0.006739  -0.009279  -0.000350  -0.002287  -0.002588   0.000003
     6  C   -0.000993   0.000734   0.000130  -0.000018   0.000735  -0.000994
     7  C   -0.034570  -0.041864   0.010052   0.004619   0.008227   0.002586
     8  C    0.398342   0.403084  -0.040109  -0.039419   0.012606   0.002611
     9  C   -0.036630  -0.041557   0.406034   0.413757  -0.041544  -0.036616
    10  C    0.002613   0.012610  -0.040106  -0.039428   0.403104   0.398350
    11  H    0.000254  -0.000377  -0.000375  -0.000347   0.004485  -0.013648
    12  H    0.000023   0.000027   0.000021   0.000038   0.003766  -0.000273
    13  H   -0.000006  -0.000024   0.000059   0.001032  -0.001045   0.000110
    14  H    0.000110  -0.001045   0.000059   0.001031  -0.000024  -0.000006
    15  H   -0.000273   0.003765   0.000021   0.000038   0.000027   0.000023
    16  H    0.000027  -0.000058  -0.000006  -0.000005  -0.000058   0.000027
    17  H   -0.000042  -0.000049  -0.000004  -0.000030  -0.000049  -0.000042
    18  H   -0.013648   0.004487  -0.000375  -0.000347  -0.000377   0.000254
    19  H    0.624002  -0.029682  -0.011532   0.007334  -0.000296   0.001363
    20  H   -0.029682   0.614066   0.002716  -0.009215  -0.000336  -0.000296
    21  H   -0.011532   0.002716   0.617403  -0.029778   0.002714  -0.011538
    22  H    0.007334  -0.009215  -0.029778   0.601822  -0.009215   0.007335
    23  H   -0.000296  -0.000336   0.002714  -0.009215   0.614042  -0.029691
    24  H    0.001363  -0.000296  -0.011538   0.007335  -0.029691   0.624025
 Mulliken charges:
               1
     1  C   -0.030339
     2  C    0.028410
     3  C   -0.212376
     4  C   -0.212340
     5  C    0.028370
     6  C   -0.168174
     7  C   -0.030331
     8  C   -0.199724
     9  C   -0.151676
    10  C   -0.199695
    11  H    0.066023
    12  H    0.074647
    13  H    0.101077
    14  H    0.101092
    15  H    0.074663
    16  H    0.083173
    17  H    0.078078
    18  H    0.066020
    19  H    0.083943
    20  H    0.079870
    21  H    0.082982
    22  H    0.092495
    23  H    0.079883
    24  H    0.083930
 Sum of Mulliken charges =  -0.00000
 Mulliken charges with hydrogens summed into heavy atoms:
               1
     1  C    0.035684
     2  C    0.103057
     3  C   -0.111299
     4  C   -0.111248
     5  C    0.103033
     6  C   -0.006924
     7  C    0.035689
     8  C   -0.035910
     9  C    0.023801
    10  C   -0.035882
 Electronic spatial extent (au):  <R**2>=           1139.3803
 Charge=             -0.0000 electrons
 Dipole moment (field-independent basis, Debye):
    X=              0.1061    Y=              0.0000    Z=             -0.2841  Tot=              0.3033
 Quadrupole moment (field-independent basis, Debye-Ang):
   XX=            -64.4442   YY=            -61.4128   ZZ=            -61.5044
   XY=             -0.0006   XZ=              0.2064   YZ=              0.0002
 Traceless Quadrupole moment (field-independent basis, Debye-Ang):
   XX=             -1.9904   YY=              1.0410   ZZ=              0.9494
   XY=             -0.0006   XZ=              0.2064   YZ=              0.0002
 Octapole moment (field-independent basis, Debye-Ang**2):
  XXX=              4.1736  YYY=             -0.0002  ZZZ=             -0.3641  XYY=             -3.0016
  XXY=              0.0003  XXZ=             -4.9195  XZZ=              1.1917  YZZ=              0.0003
  YYZ=              2.5852  XYZ=             -0.0007
 Hexadecapole moment (field-independent basis, Debye-Ang**3):
 XXXX=           -817.8966 YYYY=           -431.9205 ZZZZ=           -354.6648 XXXY=              0.0008
 XXXZ=             -0.0631 YYYX=             -0.0069 YYYZ=              0.0009 ZZZX=              0.8613
 ZZZY=              0.0017 XXYY=           -212.1484 XXZZ=           -204.0919 YYZZ=           -126.6284
 XXYZ=             -0.0002 YYXZ=             -0.6502 ZZXY=             -0.0010
 N-N= 5.670676416199D+02 E-N=-2.037105249381D+03  KE= 3.877750990631D+02
   1 Symmetry operations used in ECPInt.
 ECPInt:  NShTT=   13861 NPrTT=   40732 LenC2=   13724 LenP2D=   32838.
 LDataN:  DoStor=T MaxTD1= 7 Len=  274
 Calling FoFJK, ICntrl=      2127 FMM=F ISym2X=0 I1Cent= 0 IOpClX= 0 NMat=1 NMatS=1 NMatT=0.
 ***** Axes restored to original set *****
 -------------------------------------------------------------------
 Center     Atomic                   Forces (Hartrees/Bohr)
 Number     Number              X              Y              Z
 -------------------------------------------------------------------
      1        6          -0.002855206    0.007740495   -0.005848196
      2        6           0.003614600    0.006221703   -0.002472714
      3        6           0.005844803    0.005328254    0.004711663
      4        6           0.005874407   -0.005326297    0.004644663
      5        6           0.003562621   -0.006164112   -0.002421327
      6        6           0.006866093   -0.000007491   -0.002261452
      7        6          -0.002915050   -0.007733163   -0.005870755
      8        6          -0.001766897   -0.001789611   -0.000541887
      9        6          -0.006080184   -0.000045048    0.003020148
     10        6          -0.001725905    0.001808112   -0.000578962
     11        1           0.000280055   -0.000438224   -0.000051830
     12        1           0.000330464    0.000837633    0.000034240
     13        1          -0.001881179    0.001149739    0.004389683
     14        1          -0.001880259   -0.001155210    0.004406677
     15        1           0.000350645   -0.000870496    0.000021974
     16        1           0.001025543    0.000001366    0.000038726
     17        1          -0.000010150   -0.000003530   -0.002496910
     18        1           0.000275856    0.000458342   -0.000035718
     19        1          -0.000876793   -0.001691395    0.000195522
     20        1          -0.001575966   -0.002837586   -0.000139805
     21        1          -0.001308996   -0.000000948    0.001719623
     22        1          -0.002665842    0.000002012   -0.000499571
     23        1          -0.001572211    0.002815471   -0.000144377
     24        1          -0.000910448    0.001699984    0.000180584
 -------------------------------------------------------------------
 Cartesian Forces:  Max     0.007740495 RMS     0.003114949

 GradGradGradGradGradGradGradGradGradGradGradGradGradGradGradGradGradGrad
 Berny optimization.
 FormGI is forming the generalized inverse of G from B-inverse, IUseBI=4.
 Internal  Forces:  Max     0.012449757 RMS     0.002731610
 Search for a local minimum.
 Step number   1 out of a maximum of  144
 All quantities printed in internal units (Hartrees-Bohrs-Radians)
 Mixed Optimization -- RFO/linear search
 Second derivative matrix not updated -- first step.
 ITU=  0
     Eigenvalues ---    0.00415   0.00455   0.01327   0.01536   0.01715
     Eigenvalues ---    0.01815   0.02105   0.02236   0.03051   0.03268
     Eigenvalues ---    0.03663   0.04198   0.04243   0.04297   0.04737
     Eigenvalues ---    0.04752   0.04927   0.04955   0.05330   0.05345
     Eigenvalues ---    0.05389   0.05630   0.05787   0.05801   0.06497
     Eigenvalues ---    0.06748   0.07062   0.07243   0.07245   0.07506
     Eigenvalues ---    0.07574   0.08968   0.09656   0.11120   0.11487
     Eigenvalues ---    0.12479   0.15843   0.15969   0.16037   0.18570
     Eigenvalues ---    0.22209   0.22610   0.24624   0.26159   0.26864
     Eigenvalues ---    0.27096   0.27932   0.28289   0.28704   0.29274
     Eigenvalues ---    0.31373   0.34557   0.34561   0.34625   0.34631
     Eigenvalues ---    0.34792   0.34861   0.34877   0.34880   0.34897
     Eigenvalues ---    0.34942   0.35039   0.35047   0.36582   0.36586
     Eigenvalues ---    0.52763
 RFO step:  Lambda=-6.99527220D-03 EMin= 4.15172446D-03
 Linear search not attempted -- first point.
 Iteration  1 RMS(Cart)=  0.06280971 RMS(Int)=  0.00116546
 Iteration  2 RMS(Cart)=  0.00150874 RMS(Int)=  0.00016649
 Iteration  3 RMS(Cart)=  0.00000109 RMS(Int)=  0.00016649
 Iteration  4 RMS(Cart)=  0.00000000 RMS(Int)=  0.00016649
 Variable       Old X    -DE/DX   Delta X   Delta X   Delta X     New X
                                 (Linear)    (Quad)   (Total)
    R1        2.93303   0.01245   0.00000   0.04349   0.04355   2.97659
    R2        2.92133   0.01028   0.00000   0.02971   0.03030   2.95163
    R3        2.89451   0.00898   0.00000   0.02914   0.02922   2.92373
    R4        2.06394  -0.00011   0.00000  -0.00030  -0.00030   2.06363
    R5        2.84403   0.00874   0.00000   0.02700   0.02699   2.87102
    R6        2.89939   0.00641   0.00000   0.02335   0.02314   2.92252
    R7        2.05611   0.00089   0.00000   0.00248   0.00248   2.05859
    R8        2.50691   0.00782   0.00000   0.01307   0.01305   2.51997
    R9        2.03180   0.00433   0.00000   0.01161   0.01161   2.04341
   R10        2.84418   0.00871   0.00000   0.02691   0.02691   2.87109
   R11        2.03175   0.00434   0.00000   0.01165   0.01165   2.04340
   R12        2.89940   0.00642   0.00000   0.02333   0.02311   2.92252
   R13        2.93302   0.01245   0.00000   0.04349   0.04356   2.97659
   R14        2.05599   0.00092   0.00000   0.00258   0.00258   2.05858
   R15        2.05901   0.00096   0.00000   0.00269   0.00269   2.06170
   R16        2.05842   0.00249   0.00000   0.00700   0.00700   2.06542
   R17        2.89451   0.00899   0.00000   0.02915   0.02923   2.92374
   R18        2.06401  -0.00013   0.00000  -0.00037  -0.00037   2.06364
   R19        2.89338   0.00626   0.00000   0.02313   0.02291   2.91628
   R20        2.06287   0.00089   0.00000   0.00252   0.00252   2.06539
   R21        2.05871   0.00194   0.00000   0.00544   0.00544   2.06415
   R22        2.89311   0.00632   0.00000   0.02333   0.02312   2.91623
   R23        2.06013   0.00150   0.00000   0.00423   0.00423   2.06436
   R24        2.05769  -0.00157   0.00000  -0.00439  -0.00439   2.05330
   R25        2.05876   0.00192   0.00000   0.00539   0.00539   2.06414
   R26        2.06278   0.00092   0.00000   0.00262   0.00262   2.06540
    A1        1.79345  -0.00082   0.00000  -0.00345  -0.00364   1.78981
    A2        2.03221   0.00509   0.00000   0.04935   0.04913   2.08134
    A3        1.89103  -0.00205   0.00000  -0.01981  -0.01978   1.87124
    A4        1.86275  -0.00137   0.00000  -0.00077  -0.00112   1.86163
    A5        1.95255   0.00087   0.00000  -0.00957  -0.00979   1.94277
    A6        1.92857  -0.00157   0.00000  -0.01531  -0.01513   1.91344
    A7        1.87528   0.00408   0.00000   0.03681   0.03678   1.91206
    A8        1.74577  -0.00063   0.00000  -0.00824  -0.00807   1.73770
    A9        1.98886  -0.00136   0.00000  -0.00696  -0.00716   1.98169
   A10        1.74546  -0.00115   0.00000  -0.00963  -0.00953   1.73593
   A11        2.02439  -0.00099   0.00000  -0.00587  -0.00603   2.01836
   A12        2.04864   0.00044   0.00000  -0.00363  -0.00381   2.04483
   A13        1.87618  -0.00038   0.00000  -0.00010  -0.00024   1.87594
   A14        2.16710   0.00209   0.00000   0.01088   0.01072   2.17782
   A15        2.23847  -0.00175   0.00000  -0.01236  -0.01248   2.22599
   A16        1.87611  -0.00037   0.00000  -0.00004  -0.00018   1.87592
   A17        2.23858  -0.00177   0.00000  -0.01243  -0.01255   2.22603
   A18        2.16706   0.00209   0.00000   0.01089   0.01072   2.17779
   A19        1.74546  -0.00115   0.00000  -0.00967  -0.00957   1.73589
   A20        1.87516   0.00409   0.00000   0.03692   0.03689   1.91205
   A21        2.02436  -0.00099   0.00000  -0.00585  -0.00601   2.01835
   A22        1.74574  -0.00062   0.00000  -0.00819  -0.00802   1.73773
   A23        2.04882   0.00042   0.00000  -0.00376  -0.00394   2.04488
   A24        1.98885  -0.00136   0.00000  -0.00696  -0.00717   1.98168
   A25        1.62849   0.00085   0.00000  -0.00254  -0.00275   1.62574
   A26        1.96966  -0.00013   0.00000   0.00253   0.00260   1.97225
   A27        1.98469  -0.00033   0.00000  -0.00106  -0.00101   1.98369
   A28        1.96963  -0.00013   0.00000   0.00255   0.00261   1.97225
   A29        1.98475  -0.00033   0.00000  -0.00111  -0.00106   1.98370
   A30        1.91417   0.00011   0.00000  -0.00045  -0.00049   1.91367
   A31        1.79354  -0.00084   0.00000  -0.00355  -0.00374   1.78980
   A32        1.86253  -0.00134   0.00000  -0.00052  -0.00087   1.86166
   A33        1.95265   0.00086   0.00000  -0.00968  -0.00989   1.94275
   A34        2.03235   0.00507   0.00000   0.04922   0.04900   2.08135
   A35        1.89098  -0.00204   0.00000  -0.01975  -0.01972   1.87126
   A36        1.92853  -0.00158   0.00000  -0.01530  -0.01512   1.91341
   A37        1.85153   0.00235   0.00000   0.01572   0.01545   1.86698
   A38        1.90883  -0.00081   0.00000  -0.01004  -0.00985   1.89898
   A39        1.95226   0.00019   0.00000   0.01509   0.01464   1.96690
   A40        1.91286  -0.00115   0.00000  -0.01296  -0.01298   1.89988
   A41        1.95444   0.00014   0.00000   0.01299   0.01269   1.96712
   A42        1.88365  -0.00076   0.00000  -0.02119  -0.02108   1.86258
   A43        1.83044  -0.00115   0.00000   0.00345   0.00285   1.83330
   A44        1.94938   0.00082   0.00000   0.00861   0.00864   1.95802
   A45        1.92481   0.00040   0.00000  -0.00156  -0.00133   1.92347
   A46        1.94944   0.00083   0.00000   0.00861   0.00864   1.95808
   A47        1.92490   0.00039   0.00000  -0.00158  -0.00135   1.92355
   A48        1.88519  -0.00123   0.00000  -0.01682  -0.01688   1.86831
   A49        1.85146   0.00236   0.00000   0.01582   0.01554   1.86700
   A50        1.95230   0.00018   0.00000   0.01499   0.01455   1.96685
   A51        1.90866  -0.00080   0.00000  -0.00991  -0.00973   1.89894
   A52        1.95461   0.00014   0.00000   0.01287   0.01257   1.96718
   A53        1.91291  -0.00115   0.00000  -0.01299  -0.01301   1.89990
   A54        1.88361  -0.00075   0.00000  -0.02117  -0.02106   1.86255
    D1       -1.16552   0.00078   0.00000   0.01243   0.01245  -1.15306
    D2        0.64819   0.00037   0.00000   0.00857   0.00854   0.65673
    D3        2.84948  -0.00027   0.00000  -0.00525  -0.00525   2.84422
    D4        0.86327   0.00108   0.00000   0.03375   0.03400   0.89727
    D5        2.67698   0.00067   0.00000   0.02988   0.03008   2.70707
    D6       -1.40492   0.00004   0.00000   0.01607   0.01629  -1.38863
    D7        3.04904   0.00109   0.00000   0.03376   0.03368   3.08272
    D8       -1.42044   0.00068   0.00000   0.02989   0.02977  -1.39067
    D9        0.78085   0.00005   0.00000   0.01608   0.01597   0.79682
   D10       -0.00006  -0.00000   0.00000   0.00000   0.00000  -0.00006
   D11        2.14687   0.00475   0.00000   0.05423   0.05393   2.20080
   D12       -2.02503   0.00246   0.00000   0.02936   0.02920  -1.99583
   D13       -2.14689  -0.00476   0.00000  -0.05431  -0.05401  -2.20090
   D14        0.00004  -0.00001   0.00000  -0.00008  -0.00008  -0.00004
   D15        2.11133  -0.00230   0.00000  -0.02495  -0.02481   2.08652
   D16        2.02486  -0.00246   0.00000  -0.02933  -0.02917   1.99569
   D17       -2.11139   0.00230   0.00000   0.02490   0.02476  -2.08664
   D18       -0.00010   0.00000   0.00000   0.00003   0.00003  -0.00007
   D19       -1.66609  -0.00144   0.00000  -0.05315  -0.05362  -1.71970
   D20        0.46986   0.00039   0.00000  -0.01797  -0.01815   0.45171
   D21        2.55548  -0.00097   0.00000  -0.04148  -0.04176   2.51372
   D22        0.32381  -0.00060   0.00000  -0.03080  -0.03090   0.29291
   D23        2.45976   0.00123   0.00000   0.00438   0.00456   2.46432
   D24       -1.73781  -0.00012   0.00000  -0.01913  -0.01905  -1.75685
   D25        2.45046  -0.00131   0.00000  -0.05192  -0.05207   2.39839
   D26       -1.69678   0.00051   0.00000  -0.01674  -0.01661  -1.71339
   D27        0.38885  -0.00084   0.00000  -0.04025  -0.04022   0.34863
   D28        1.22196  -0.00072   0.00000  -0.01247  -0.01252   1.20944
   D29       -1.86616   0.00015   0.00000   0.01729   0.01740  -1.84876
   D30       -0.59198  -0.00068   0.00000  -0.00958  -0.00959  -0.60157
   D31        2.60310   0.00019   0.00000   0.02018   0.02032   2.62341
   D32       -2.81320   0.00021   0.00000   0.00567   0.00564  -2.80757
   D33        0.38187   0.00109   0.00000   0.03543   0.03555   0.41742
   D34       -1.03097  -0.00187   0.00000  -0.01795  -0.01796  -1.04893
   D35       -3.06458  -0.00212   0.00000  -0.02023  -0.02022  -3.08480
   D36        1.02396  -0.00189   0.00000  -0.02086  -0.02090   1.00306
   D37        0.88711   0.00195   0.00000   0.01606   0.01608   0.90319
   D38       -1.14650   0.00170   0.00000   0.01378   0.01381  -1.13269
   D39        2.94203   0.00193   0.00000   0.01315   0.01314   2.95517
   D40        3.09205   0.00006   0.00000  -0.00106  -0.00104   3.09101
   D41        1.05843  -0.00019   0.00000  -0.00334  -0.00330   1.05513
   D42       -1.13621   0.00004   0.00000  -0.00397  -0.00397  -1.14019
   D43        0.00009  -0.00001   0.00000  -0.00015  -0.00015  -0.00006
   D44       -3.08522   0.00076   0.00000   0.03041   0.03005  -3.05518
   D45        3.08533  -0.00077   0.00000  -0.03055  -0.03019   3.05514
   D46        0.00002  -0.00000   0.00000   0.00001   0.00001   0.00003
   D47        0.59183   0.00069   0.00000   0.00983   0.00984   0.60168
   D48       -1.22204   0.00072   0.00000   0.01264   0.01269  -1.20935
   D49        2.81327  -0.00022   0.00000  -0.00560  -0.00557   2.80769
   D50       -2.60317  -0.00019   0.00000  -0.02008  -0.02023  -2.62339
   D51        1.86615  -0.00016   0.00000  -0.01728  -0.01738   1.84877
   D52       -0.38173  -0.00110   0.00000  -0.03552  -0.03564  -0.41738
   D53       -0.88706  -0.00196   0.00000  -0.01613  -0.01615  -0.90321
   D54        1.14658  -0.00171   0.00000  -0.01387  -0.01390   1.13267
   D55       -2.94193  -0.00194   0.00000  -0.01327  -0.01326  -2.95519
   D56        1.03089   0.00187   0.00000   0.01800   0.01800   1.04890
   D57        3.06453   0.00212   0.00000   0.02026   0.02025   3.08478
   D58       -1.02398   0.00189   0.00000   0.02086   0.02090  -1.00308
   D59       -3.09206  -0.00006   0.00000   0.00107   0.00105  -3.09101
   D60       -1.05842   0.00019   0.00000   0.00333   0.00329  -1.05513
   D61        1.13625  -0.00005   0.00000   0.00393   0.00394   1.14019
   D62        1.16559  -0.00077   0.00000  -0.01244  -0.01246   1.15313
   D63       -0.86305  -0.00110   0.00000  -0.03394  -0.03418  -0.89724
   D64       -3.04883  -0.00110   0.00000  -0.03391  -0.03383  -3.08266
   D65       -0.64808  -0.00036   0.00000  -0.00858  -0.00855  -0.65663
   D66       -2.67673  -0.00069   0.00000  -0.03008  -0.03028  -2.70701
   D67        1.42069  -0.00069   0.00000  -0.03005  -0.02992   1.39076
   D68       -2.84956   0.00028   0.00000   0.00536   0.00536  -2.84420
   D69        1.40498  -0.00005   0.00000  -0.01614  -0.01636   1.38862
   D70       -0.78079  -0.00005   0.00000  -0.01612  -0.01601  -0.79680
   D71       -0.32385   0.00060   0.00000   0.03092   0.03102  -0.29283
   D72        1.73783   0.00013   0.00000   0.01917   0.01908   1.75691
   D73       -2.45959  -0.00123   0.00000  -0.00440  -0.00459  -2.46418
   D74        1.66609   0.00144   0.00000   0.05324   0.05371   1.71980
   D75       -2.55542   0.00097   0.00000   0.04149   0.04177  -2.51365
   D76       -0.46966  -0.00039   0.00000   0.01792   0.01810  -0.45155
   D77       -2.45045   0.00131   0.00000   0.05200   0.05215  -2.39829
   D78       -0.38878   0.00084   0.00000   0.04024   0.04022  -0.34856
   D79        1.69699  -0.00052   0.00000   0.01668   0.01655   1.71354
   D80        0.52351  -0.00123   0.00000  -0.05172  -0.05168   0.47183
   D81        2.63798  -0.00050   0.00000  -0.03441  -0.03450   2.60349
   D82       -1.54871  -0.00124   0.00000  -0.05101  -0.05103  -1.59974
   D83       -1.53549  -0.00099   0.00000  -0.04193  -0.04183  -1.57732
   D84        0.57899  -0.00026   0.00000  -0.02463  -0.02464   0.55434
   D85        2.67548  -0.00100   0.00000  -0.04123  -0.04117   2.63431
   D86        2.65787   0.00064   0.00000  -0.01501  -0.01483   2.64304
   D87       -1.51084   0.00137   0.00000   0.00230   0.00235  -1.50848
   D88        0.58566   0.00063   0.00000  -0.01431  -0.01418   0.57148
   D89       -0.52345   0.00122   0.00000   0.05162   0.05158  -0.47186
   D90       -2.65792  -0.00064   0.00000   0.01503   0.01485  -2.64307
   D91        1.53535   0.00099   0.00000   0.04202   0.04192   1.57726
   D92       -2.63789   0.00049   0.00000   0.03431   0.03440  -2.60348
   D93        1.51082  -0.00137   0.00000  -0.00227  -0.00233   1.50849
   D94       -0.57910   0.00026   0.00000   0.02472   0.02474  -0.55436
   D95        1.54871   0.00124   0.00000   0.05093   0.05095   1.59965
   D96       -0.58577  -0.00063   0.00000   0.01434   0.01421  -0.57156
   D97       -2.67569   0.00100   0.00000   0.04133   0.04128  -2.63441
         Item               Value     Threshold  Converged?
 Maximum Force            0.012450     0.000450     NO 
 RMS     Force            0.002732     0.000300     NO 
 Maximum Displacement     0.372553     0.001800     NO 
 RMS     Displacement     0.062842     0.001200     NO 
 Predicted change in Energy=-3.844497D-03
 GradGradGradGradGradGradGradGradGradGradGradGradGradGradGradGradGradGrad

                          Input orientation:                          
 ---------------------------------------------------------------------
 Center     Atomic      Atomic             Coordinates (Angstroms)
 Number     Number       Type             X           Y           Z
 ---------------------------------------------------------------------
      1          6           0       -0.282228    0.780974   -0.836718
      2          6           0        1.093910    1.123272   -0.151046
      3          6           0        1.067541    0.666811    1.297800
      4          6           0        1.067692   -0.666697    1.297784
      5          6           0        1.094072   -1.123100   -0.151117
      6          6           0        1.968541    0.000165   -0.755542
      7          6           0       -0.282146   -0.780960   -0.836711
      8          6           0       -1.597811   -1.224726   -0.154175
      9          6           0       -2.144452   -0.000078    0.609359
     10          6           0       -1.597973    1.224563   -0.154240
     11          1           0       -0.244319    1.177869   -1.853360
     12          1           0        1.418826    2.149869   -0.316064
     13          1           0        0.977926    1.325655    2.150537
     14          1           0        0.978205   -1.325617    2.150470
     15          1           0        1.419091   -2.149651   -0.316171
     16          1           0        2.989066    0.000221   -0.369768
     17          1           0        1.988798    0.000206   -1.848329
     18          1           0       -0.244269   -1.177850   -1.853359
     19          1           0       -2.316844   -1.509199   -0.926589
     20          1           0       -1.465407   -2.097809    0.488719
     21          1           0       -3.235589   -0.000180    0.662104
     22          1           0       -1.776147   -0.000069    1.631591
     23          1           0       -1.465681    2.097746    0.488541
     24          1           0       -2.317001    1.508885   -0.926718
 ---------------------------------------------------------------------
                    Distance matrix (angstroms):
                    1          2          3          4          5
     1  C    0.000000
     2  C    1.575141   0.000000
     3  C    2.528058   1.519279   0.000000
     4  C    2.911037   2.302995   1.333508   0.000000
     5  C    2.447396   2.246372   2.303008   1.519313   0.000000
     6  C    2.383739   1.546533   2.339323   2.339313   1.546529
     7  C    1.561934   2.447400   2.910985   2.528079   1.575143
     8  C    2.493884   3.571900   3.576345   3.086177   2.693802
     9  C    2.483759   3.511000   3.351953   3.352041   3.511059
    10  C    1.547170   2.693790   3.086175   3.576452   3.571924
    11  H    1.092027   2.166036   3.451372   3.879885   3.159649
    12  H    2.244669   1.089359   2.219779   3.265095   3.293174
    13  H    3.287607   2.313373   1.081326   2.169035   3.362663
    14  H    3.866486   3.362651   2.169054   1.081322   2.313383
    15  H    3.428413   3.293180   3.265111   2.219794   1.089352
    16  H    3.395435   2.213752   2.630092   2.630055   2.213743
    17  H    2.605861   2.223256   3.345326   3.345328   2.223259
    18  H    2.207259   3.159708   3.879874   3.451408   2.166052
    19  H    3.064740   4.377741   4.597498   4.136753   3.519201
    20  H    3.382911   4.163504   3.835826   3.019811   2.812540
    21  H    3.402795   4.546199   4.400672   4.400746   4.546234
    22  H    2.989042   3.560466   2.939848   2.939938   3.560533
    23  H    2.211507   2.812504   3.019883   3.836013   4.163573
    24  H    2.162927   3.519187   4.136749   4.597576   4.377707
                    6          7          8          9         10
     6  C    0.000000
     7  C    2.383765   0.000000
     8  C    3.818490   1.547177   0.000000
     9  C    4.333551   2.483763   1.543231   0.000000
    10  C    3.818473   2.493851   2.449289   1.543201   0.000000
    11  H    2.736592   2.207265   3.239079   3.326116   2.172918
    12  H    2.261980   3.428431   4.529260   4.263289   3.159661
    13  H    3.344180   3.866427   4.295411   3.725861   3.457957
    14  H    3.344155   3.287611   3.457951   3.725998   4.295556
    15  H    2.262002   2.244656   3.159656   4.263344   4.529262
    16  H    1.091005   3.395454   4.752517   5.226059   4.752514
    17  H    1.092974   2.605913   4.151432   4.808740   4.151375
    18  H    2.736686   1.092031   2.172902   3.326082   3.238999
    19  H    4.546643   2.162962   1.092958   2.160162   2.930316
    20  H    4.212088   2.211552   1.092299   2.208196   3.386610
    21  H    5.393764   3.402777   2.201849   1.092412   2.201863
    22  H    4.440843   2.989037   2.172682   1.086557   2.172708
    23  H    4.212062   3.382897   3.386644   2.208210   1.092298
    24  H    4.546581   3.064657   2.930304   2.160156   1.092960
                   11         12         13         14         15
    11  H    0.000000
    12  H    2.464572   0.000000
    13  H    4.188904   2.637772   0.000000
    14  H    4.877773   4.284500   2.651272   0.000000
    15  H    4.025204   4.299520   4.284510   2.637751   0.000000
    16  H    3.747356   2.662616   3.486172   3.486117   2.662638
    17  H    2.524624   2.700695   4.332390   4.332378   2.700733
    18  H    2.355719   4.025280   4.877754   4.188905   2.464571
    19  H    3.517754   5.264670   5.325468   4.512133   3.839270
    20  H    4.207904   5.197042   4.522347   3.054331   2.995140
    21  H    4.082041   5.219493   4.661221   4.661339   5.219511
    22  H    3.984836   4.315489   3.100285   3.100446   4.315556
    23  H    2.796856   2.995078   3.054434   4.522610   5.197100
    24  H    2.294395   3.839292   4.512162   5.325586   5.264602
                   16         17         18         19         20
    16  H    0.000000
    17  H    1.785126   0.000000
    18  H    3.747445   2.524763   0.000000
    19  H    5.544463   4.654725   2.294398   0.000000
    20  H    4.998106   4.668511   2.796933   1.753426   0.000000
    21  H    6.309603   5.796249   4.081968   2.375958   2.750210
    22  H    5.168432   5.126856   3.984808   3.018959   2.408989
    23  H    4.998107   4.668411   4.207835   3.967004   4.195554
    24  H    5.544421   4.654609   3.517588   3.018083   3.966978
                   21         22         23         24
    21  H    0.000000
    22  H    1.752107   0.000000
    23  H    2.750271   2.409103   0.000000
    24  H    2.376013   3.019008   1.753413   0.000000
 Stoichiometry    C10H14
 Framework group  C1[X(C10H14)]
 Deg. of freedom    66
 Full point group                 C1      NOp   1
 Largest Abelian subgroup         C1      NOp   1
 Largest concise Abelian subgroup C1      NOp   1
                         Standard orientation:                         
 ---------------------------------------------------------------------
 Center     Atomic      Atomic             Coordinates (Angstroms)
 Number     Number       Type             X           Y           Z
 ---------------------------------------------------------------------
      1          6           0        0.276984   -0.781023   -0.836170
      2          6           0       -1.105586   -1.123207   -0.163503
      3          6           0       -1.092878   -0.666654    1.285499
      4          6           0       -1.092961    0.666855    1.285395
      5          6           0       -1.105633    1.123164   -0.163720
      6          6           0       -1.974412   -0.000096   -0.776305
      7          6           0        0.276981    0.780911   -0.836263
      8          6           0        1.586164    1.224656   -0.141361
      9          6           0        2.125507    0.000030    0.627380
     10          6           0        1.586202   -1.224633   -0.141267
     11          1           0        0.248658   -1.177982   -1.853099
     12          1           0       -1.428981   -2.149799   -0.331515
     13          1           0       -1.011354   -1.325447    2.139086
     14          1           0       -1.011498    1.325825    2.138846
     15          1           0       -1.429027    2.149721   -0.331902
     16          1           0       -2.998534   -0.000076   -0.400186
     17          1           0       -1.984348   -0.000207   -1.869233
     18          1           0        0.248727    1.177737   -1.853250
     19          1           0        2.312474    1.509042   -0.906969
     20          1           0        1.447738    2.097787    0.500197
     21          1           0        3.216098    0.000081    0.690428
     22          1           0        1.747564    0.000106    1.646088
     23          1           0        1.447802   -2.097767    0.500292
     24          1           0        2.312479   -1.509041   -0.906901
 ---------------------------------------------------------------------
 Rotational constants (GHZ):           2.3443106           1.3887005           1.2967394
 Standard basis: def2TZVP (5D, 7F)
 There are   444 symmetry adapted cartesian basis functions of A   symmetry.
 There are   394 symmetry adapted basis functions of A   symmetry.
   394 basis functions,   622 primitive gaussians,   444 cartesian basis functions
    37 alpha electrons       37 beta electrons
       nuclear repulsion energy       558.4868637864 Hartrees.
 NAtoms=   24 NActive=   24 NUniq=   24 SFac= 1.00D+00 NAtFMM=   60 NAOKFM=F Big=F
 Integral buffers will be    131072 words long.
 Raffenetti 2 integral format.
 Two-electron integral symmetry is turned on.
 One-electron integrals computed using PRISM.
   1 Symmetry operations used in ECPInt.
 ECPInt:  NShTT=   13861 NPrTT=   40732 LenC2=   13703 LenP2D=   32633.
 LDataN:  DoStor=T MaxTD1= 6 Len=  172
 NBasis=   394 RedAO= T EigKep=  1.90D-05  NBF=   394
 NBsUse=   394 1.00D-06 EigRej= -1.00D+00 NBFU=   394
 Initial guess from the checkpoint file:  "/tmp/Gau-2694753.chk"
 B after Tr=    -0.000000   -0.000000   -0.000000
         Rot=    0.999883    0.000023    0.015313    0.000025 Ang=   1.75 deg.
 ExpMin= 9.52D-02 ExpMax= 1.36D+04 ExpMxC= 4.63D+02 IAcc=3 IRadAn=         5 AccDes= 0.00D+00
 Harris functional with IExCor=  402 and IRadAn=       5 diagonalized for initial guess.
 HarFok:  IExCor=  402 AccDes= 0.00D+00 IRadAn=         5 IDoV= 1 UseB2=F ITyADJ=14
 ICtDFT=  3500011 ScaDFX=  1.000000  1.000000  1.000000  1.000000
 FoFCou: FMM=F IPFlag=           0 FMFlag=      100000 FMFlg1=           0
         NFxFlg=           0 DoJE=T BraDBF=F KetDBF=T FulRan=T
         wScrn=  0.000000 ICntrl=       500 IOpCl=  0 I1Cent=   200000004 NGrid=           0
         NMat0=    1 NMatS0=      1 NMatT0=    0 NMatD0=    1 NMtDS0=    0 NMtDT0=    0
 Petite list used in FoFCou.
 Requested convergence on RMS density matrix=1.00D-08 within 128 cycles.
 Requested convergence on MAX density matrix=1.00D-06.
 Requested convergence on             energy=1.00D-06.
 No special actions if energy rises.
 Integral accuracy reduced to 1.0D-05 until final iterations.
 Initial convergence to 1.0D-05 achieved.  Increase integral accuracy.
 SCF Done:  E(RB3LYP) =  -389.593289288     A.U. after   11 cycles
            NFock= 11  Conv=0.47D-08     -V/T= 2.0056
   1 Symmetry operations used in ECPInt.
 ECPInt:  NShTT=   13861 NPrTT=   40732 LenC2=   13703 LenP2D=   32633.
 LDataN:  DoStor=T MaxTD1= 7 Len=  274
 Calling FoFJK, ICntrl=      2127 FMM=F ISym2X=0 I1Cent= 0 IOpClX= 0 NMat=1 NMatS=1 NMatT=0.
 ***** Axes restored to original set *****
 -------------------------------------------------------------------
 Center     Atomic                   Forces (Hartrees/Bohr)
[...]
 0.01156956,0.04149769,0.05750479,-0.00240364,0.00095287,0.00221642,-0.
 01252322,-0.00204293,-0.00546820,0.00144721,0.00092381,-0.00088009,0.0
 0144736,-0.00092357,-0.00087994,-0.01252060,0.00204121,-0.00546709,-0.
 27277409,-0.00001406,-0.08838040,-0.00240310,-0.00095279,0.00221603,-0
 .00022235,0.00019685,-0.00100062,-0.00023137,0.,-0.00009072,-0.0002224
 6,-0.00019695,-0.00100076,0.00018636,0.00005121,-0.00017115,0.00038871
 ,0.00041051,0.00003813,-0.00007685,-0.00001173,0.00014798,-0.00007686,
 0.00001172,0.00014797,0.00038866,-0.00041051,0.00003821,0.29751450,0.0
 0312440,-0.00319178,-0.00297820,0.02298248,0.00150125,0.00863418,0.000
 40774,-0.00045589,0.00112550,-0.00040753,-0.00045602,-0.00112559,-0.02
 298433,0.00149869,-0.00863490,-0.00001401,-0.04438502,-0.00000542,-0.0
 0312429,-0.00319232,0.00297849,-0.00110578,0.00060540,-0.00105859,0.,-
 0.00039946,0.,0.00110566,0.00060552,0.00105847,-0.00023191,-0.00010986
 ,-0.00012411,-0.00080985,0.00036987,0.00064665,-0.00011746,0.00004203,
 -0.00009296,0.00011743,0.00004205,0.00009297,0.00080986,0.00036993,-0.
 00064665,0.00001542,0.04709018,0.00134297,-0.00013405,-0.00069567,0.00
 893983,0.00137999,0.00144597,0.00145536,-0.00036728,0.00122704,0.00145
 533,0.00036746,0.00122699,0.00893986,-0.00137886,0.00144593,-0.0933905
 9,-0.00000573,-0.08771454,0.00134294,0.00013423,-0.00069564,0.00059257
 ,0.00020973,0.00060916,-0.00034306,-0.00000002,0.00010488,0.00059260,-
 0.00020965,0.00060917,0.00020532,-0.00017910,0.00033983,-0.00044195,0.
 00025769,0.00025070,-0.00011948,-0.00007296,0.00005098,-0.00011948,0.0
 0007294,0.00005099,-0.00044192,-0.00025775,0.00025069,0.09770446,0.000
 00597,0.09100905,0.00025070,0.00036374,0.00082662,-0.00092824,-0.00254
 291,0.01326393,-0.00011650,0.00214511,0.00228157,-0.00011581,-0.002144
 79,0.00228145,-0.00092848,0.00254243,0.01326095,-0.05375088,-0.0000003
 9,-0.00012389,0.00025064,-0.00036376,0.00082649,0.00013529,-0.00003072
 ,-0.00010823,0.00012335,0.,0.00002697,0.00013529,0.00003078,-0.0001082
 5,-0.00052604,0.00041225,-0.00004273,0.00037906,-0.00004256,-0.0004471
 4,-0.00043165,-0.00040706,0.00065012,-0.00043168,0.00040692,0.00064999
 ,0.00037895,0.00004258,-0.00044710,0.00255488,0.00000028,-0.02814613,0
 .05342487,-0.00104358,0.00052578,-0.00096454,0.00045411,0.00186722,-0.
 02426703,0.00315665,-0.00289778,-0.00105920,-0.00315633,-0.00289851,0.
 00105946,-0.00045447,0.00186728,0.02426892,-0.00000041,-0.04731525,0.0
 0000090,0.00104356,0.00052585,0.00096461,0.00006041,-0.00033822,-0.000
 14341,0.,0.00012523,0.,-0.00006035,-0.00033822,0.00014340,0.00018727,0
 .00007264,0.00041551,-0.00083743,0.00030237,0.00035731,0.00019925,0.00
 065763,-0.00107071,-0.00019937,0.00065765,0.00107081,0.00083745,0.0003
 0250,-0.00035738,0.00000017,-0.00014431,-0.00000174,0.00000042,0.04698
 335,-0.00113089,0.00015194,-0.00018079,-0.00138024,0.00185583,-0.00852
 473,0.00134710,-0.00048048,-0.00194929,0.00134706,0.00048066,-0.001949
 30,-0.00137999,-0.00185589,-0.00852462,0.00437409,0.00000118,-0.302753
 05,-0.00113083,-0.00015206,-0.00018076,0.00019862,0.00024253,0.0002853
 9,-0.00023247,-0.00000001,0.00000043,0.00019865,-0.00024252,0.00028541
 ,0.00031407,-0.00020977,0.00081001,0.00003394,-0.00048054,0.00020549,0
 .00067151,0.00029497,-0.00028668,0.00067155,-0.00029487,-0.00028668,0.
 00003389,0.00048055,0.00020550,0.00026788,0.00000006,-0.00984108,-0.00
 445602,-0.00000138,0.33150321,0.00032957,0.00019162,0.00102020,-0.0012
 5907,-0.00022729,-0.00086419,-0.00017088,-0.00098268,-0.00080679,-0.00
 448936,0.00096294,-0.00065585,-0.00317115,-0.00923106,-0.02729745,0.00
 153848,0.00038038,-0.00052317,-0.04441648,0.00169914,0.00837634,-0.004
 24209,0.00897422,0.02461176,-0.00331238,-0.00128083,0.00175874,-0.0005
 5815,-0.00003975,0.00015799,0.00052662,-0.00013699,-0.00010667,-0.0000
 6759,-0.00009565,-0.00002385,0.00067376,-0.00014220,0.00013797,0.00003
 927,-0.00019716,-0.00053499,0.00140077,0.00027585,0.00060162,0.0001863
 3,0.00023194,0.00020530,-0.00052596,-0.00018735,0.00031405,0.05806315,
 -0.00015441,-0.01100293,-0.02696391,0.00045927,-0.00352225,-0.00027070
 ,0.00024152,-0.00010003,0.00138734,0.00201792,0.00046424,0.00047453,0.
 00141712,0.00357638,0.01021467,-0.00018109,0.00014704,-0.00076098,0.00
 207765,-0.07847919,-0.08784627,-0.00252779,0.00484111,0.01049191,-0.00
 082161,-0.00177221,0.00087628,-0.00009778,-0.00269452,-0.00092557,0.00
 013685,0.00157589,0.00032976,-0.00090816,-0.00022903,-0.00056030,-0.00
 017854,0.00008247,-0.00003832,-0.00008982,0.00005986,0.00012751,-0.000
 89883,0.00038250,0.00002239,-0.00005117,-0.00010983,0.00017912,-0.0004
 1231,0.00007256,0.00020980,-0.00178235,0.08628681,0.00041218,0.0037049
 0,0.00281333,-0.00049381,0.00058247,0.00024478,-0.00036102,0.00037694,
 -0.00030685,-0.00293230,0.00055706,-0.00013947,-0.00121495,-0.00524365
 ,-0.01549540,0.00108696,0.00000082,-0.00011862,0.00909312,-0.08930417,
 -0.27244926,0.00028203,-0.00515655,-0.01180039,0.00150952,0.00124786,0
 .00003942,0.00001166,0.00058620,0.00005581,-0.00010662,-0.00032977,0.0
 0162171,-0.00001552,0.00003103,0.00000220,0.00029890,-0.00005974,0.000
 16216,-0.00002856,-0.00015849,-0.00027207,0.00012217,0.00067202,0.0005
 2942,-0.00017117,0.00012408,0.00033983,-0.00004268,-0.00041552,0.00080
 998,-0.00865938,0.09298453,0.29269396,-0.00077345,0.00016877,0.0004609
 5,-0.00020226,0.00010546,0.00008610,0.00003227,-0.00011961,-0.00003368
 ,0.00024397,0.00025922,0.00095953,-0.00210694,-0.00318544,0.00265038,-
 0.00143164,0.00030064,-0.00080391,-0.02029288,-0.00536081,-0.01837138,
 -0.15882547,-0.04418463,-0.12040141,0.00742252,0.00440773,0.01046415,-
 0.00017016,-0.00023705,0.00009241,-0.00008949,-0.00033911,0.00006776,-
 0.00002489,-0.00009352,-0.00004379,-0.00002529,-0.00006231,-0.00004951
 ,0.00005168,0.00000041,-0.00003463,-0.00006548,0.00013518,-0.00002933,
 -0.00034609,-0.00048221,0.00021219,0.00000815,-0.00002477,0.00010248,0
 .00115313,0.00080737,0.00003579,0.17667046,-0.00000115,-0.00020470,0.0
 0057309,-0.00010847,0.00011168,0.00003048,-0.00000551,-0.00001265,-0.0
 0007537,0.00012002,-0.00007921,0.00021957,0.00020945,-0.00006325,0.000
 84725,-0.00017070,0.00004920,-0.00011582,-0.00581983,-0.00169071,-0.00
 617959,-0.04422209,-0.06627810,-0.04345939,-0.01617694,-0.00670512,-0.
 02060903,0.00005044,0.00043511,-0.00018820,-0.00017514,-0.00017422,0.0
 0007903,-0.00000169,-0.00002541,-0.00002435,0.00005683,0.00001955,0.00
 003585,-0.00001262,0.00002367,-0.00013456,-0.00022405,0.00004305,-0.00
 000756,-0.00004189,-0.00005026,0.00001335,-0.00000027,0.00000184,0.000
 00047,0.00047955,0.00096200,0.00019947,0.04663631,0.06886431,0.0002100
 4,-0.00022700,-0.00024576,0.00018117,-0.00009451,-0.00000255,-0.000046
 74,0.00022306,0.00007540,-0.00004874,-0.00013107,-0.00028281,0.0016804
 3,0.00115730,-0.00048542,0.00048588,-0.00001414,0.00023038,0.01312222,
 0.00390945,0.00927436,-0.12138984,-0.04354288,-0.17062178,-0.00940508,
 -0.00486109,-0.01432311,-0.00008015,0.00005896,-0.00006156,-0.00002139
 ,0.00010092,0.00006305,-0.00000486,0.00002802,0.00004228,0.00001578,0.
 00002975,0.00002777,0.00010091,-0.00003214,0.00016636,0.00003635,-0.00
 003180,-0.00000652,0.00018702,0.00014825,-0.00007676,-0.00001527,-0.00
 000129,-0.00000175,0.00035664,-0.00007309,0.00210935,0.12649151,0.0512
 8907,0.18770651,-0.00270670,-0.00110302,0.00252633,-0.00014191,-0.0007
 0116,-0.00010534,0.00023490,-0.00024642,0.00032400,-0.00004868,0.00046
 638,-0.00058607,0.00184138,0.00012264,-0.00041112,0.00052298,0.0000350
 4,0.00029109,0.00375322,-0.02238252,0.01579620,-0.05191572,0.02967865,
 -0.02286449,-0.00125999,0.00822559,-0.00687784,-0.00136872,0.00073949,
 0.00191036,-0.00004331,-0.00095866,-0.00004629,-0.00028619,-0.00001369
 ,-0.00019229,-0.00004405,0.00002527,-0.00005132,-0.00030420,-0.0002047
 7,-0.00025758,-0.00014921,0.00025690,0.00005605,0.00003252,0.00014179,
 -0.00006653,0.00003818,-0.00002629,-0.00011238,-0.00101280,-0.00031596
 ,0.00103697,-0.00319283,0.01773509,-0.01352484,0.05531156,-0.00001231,
 -0.00093573,-0.00014153,0.00003442,-0.00024564,0.00034285,0.00011591,-
 0.00009685,-0.00000921,-0.00017050,-0.00006535,0.00009573,0.00078133,0
 .00103568,0.00013474,-0.00003016,-0.00008088,0.00001288,0.00106743,-0.
 00503664,0.00355063,0.02841552,-0.20512614,0.12085735,0.00254491,-0.01
 745169,0.01419728,0.00046258,-0.00302159,-0.00229595,-0.00026364,-0.00
 035809,0.00006697,-0.00014743,0.00007910,-0.00009575,0.00003386,0.0000
 2415,-0.00000161,-0.00009238,0.00014550,-0.00033886,-0.00054115,0.0000
 4208,-0.00012647,-0.00007874,0.00007984,-0.00002665,0.00004672,0.00002
 933,-0.00008096,-0.00040089,-0.00047747,0.00020018,-0.00050743,0.00736
 807,-0.00451680,-0.03105381,0.22457629,0.00155428,-0.00076206,-0.00097
 118,-0.00038986,0.00034856,-0.00034391,0.00014872,-0.00020404,0.000211
 43,0.00022601,0.00028694,0.00018770,-0.00133430,-0.00054698,0.00095015
 ,-0.00015894,0.00004907,-0.00023681,-0.00164391,0.00961240,-0.00769977
 ,-0.02212841,0.12360886,-0.13921269,0.00168105,-0.01530565,0.01093123,
 0.00129777,-0.00281041,-0.00125602,0.00000833,0.00024530,0.00007379,0.
 00020055,-0.00001330,0.00004455,-0.00004847,-0.00001788,0.00000904,-0.
 00023977,-0.00007960,0.00011342,0.00052041,-0.00021716,0.00003672,0.00
 002803,-0.00006646,0.00006898,-0.00002600,-0.00000101,0.00004083,0.001
 06995,0.00049109,-0.00062917,-0.00375567,0.01823487,-0.01436214,0.0232
 3613,-0.13250970,0.15001552,0.00041769,-0.00062110,0.00066959,0.000151
 39,0.00003705,0.00016610,-0.00050998,0.00046686,-0.00009272,-0.0005098
 9,-0.00046693,-0.00009271,0.00015139,-0.00003708,0.00016617,0.00003087
 ,0.00000001,-0.00006542,0.00041752,0.00062167,0.00066976,-0.00713839,-
 0.00104361,-0.00059500,-0.30492573,-0.00001599,0.01516595,-0.00713530,
 0.00104258,-0.00059528,-0.00045530,-0.00003068,0.00015746,-0.00005428,
 -0.00005740,-0.00000116,0.00009758,0.00001930,0.00001365,0.00009758,-0
 .00001929,0.00001365,-0.00005428,0.00005739,-0.00000116,-0.00004146,-0
 .00000001,-0.00006927,0.00003667,0.,0.00004179,-0.00045541,0.00003058,
 0.00015752,0.00159319,-0.00011462,0.00040704,-0.00041518,0.00056183,0.
 00045103,0.33000248,-0.00065486,-0.00418140,0.00154999,-0.00007408,0.0
 0034519,0.00045313,0.00014744,0.00007388,0.00012833,-0.00014751,0.0000
 7381,-0.00012833,0.00007407,0.00034521,-0.00045313,0.00000001,-0.00011
 587,0.,0.00065546,-0.00418123,-0.00154985,0.02620918,0.00078402,-0.002
 33470,-0.00001599,-0.04678777,0.00000089,-0.02621018,0.00078085,0.0023
 3465,-0.00090984,0.00030763,0.00050008,0.00004480,0.00002908,0.0000097
 6,0.00001360,0.00003302,-0.00001213,-0.00001359,0.00003301,0.00001214,
 -0.00004481,0.00002908,-0.00000976,-0.00000001,0.00018834,0.,0.,-0.000
 05906,0.,0.00090974,0.00030774,-0.00050006,-0.00059767,0.00171305,0.00
 058401,0.00033806,-0.00090510,0.00006088,0.00001737,0.05033650,0.00168
 212,0.00152538,-0.00164172,0.00012086,0.00001063,-0.00058474,-0.000805
 57,0.00052422,-0.00001364,-0.00080551,-0.00052431,-0.00001364,0.000120
 86,-0.00001061,-0.00058474,0.00036982,0.00000002,0.00018438,0.00168231
 ,-0.00152515,-0.00164170,0.01562231,0.00020359,-0.00205114,0.01143849,
 0.00000065,-0.04831192,0.01562250,-0.00020160,-0.00205116,0.00060824,-
 0.00001921,-0.00037263,0.00003255,0.00001092,0.00007583,0.00013758,0.0
 0007706,0.00010565,0.00013759,-0.00007703,0.00010565,0.00003255,-0.000
 01092,0.00007583,0.00017634,0.00000001,0.00001464,-0.00002130,0.,0.000
 14711,0.00060823,0.00001928,-0.00037262,0.00025363,0.00066507,0.000833
 14,0.00013623,-0.00032984,-0.00004695,-0.01722158,-0.00000107,0.052249
 86,0.00006456,0.00017763,-0.00002312,-0.00008820,-0.00016776,0.0000869
 5,-0.00140129,-0.00043649,0.00010707,-0.00140131,0.00043631,0.00010714
 ,-0.00008823,0.00016773,0.00008696,-0.00006713,0.,0.00001877,0.0000645
 9,-0.00017758,-0.00002311,0.00451242,-0.00026586,0.01008312,-0.0870650
 1,-0.00000294,-0.09203301,0.00451098,0.00026694,0.01007986,-0.00009673
 ,0.00006623,-0.00004230,0.00000262,0.00003396,-0.00008301,-0.00010072,
 -0.00009728,-0.00003863,-0.00010073,0.00009727,-0.00003864,0.00000263,
 -0.00003396,-0.00008301,0.00000920,0.,0.00000403,-0.00000710,0.,-0.000
 08393,-0.00009675,-0.00006627,-0.00004230,0.00029344,0.00144210,0.0013
 2531,0.00076379,-0.00057206,-0.00035133,-0.01247919,-0.00000086,-0.030
 31812,0.09171062,0.00031561,-0.00029037,0.00020106,-0.00003064,0.00004
 809,0.00016309,-0.00011864,0.00015630,0.00028482,0.00011843,0.00015635
 ,-0.00028481,0.00003061,0.00004810,-0.00016308,0.,-0.00002834,0.,-0.00
 031557,-0.00029047,-0.00020109,-0.01124184,-0.00374947,-0.02625524,-0.
 00000293,-0.04412923,-0.00000636,0.01124290,-0.00374784,0.02625650,-0.
 00016001,0.00016094,-0.00004640,0.00001519,0.00000950,0.00004284,-0.00
 020236,-0.00008295,-0.00013979,0.00020236,-0.00008291,0.00013978,-0.00
 001519,0.00000950,-0.00004284,0.,0.00007205,0.,0.,-0.00003107,0.,0.000
 15998,0.00016096,0.00004638,0.00257394,-0.00375328,-0.00355780,-0.0008
 0820,0.00157482,0.00054464,-0.00000079,0.00004207,-0.00000191,0.000002
 49,0.05592606,-0.00000784,0.00010033,0.00002257,0.00022118,0.00021274,
 -0.00040432,-0.00144590,0.00090268,0.00004300,-0.00144580,-0.00090284,
 0.00004298,0.00022121,-0.00021272,-0.00040433,0.00015523,0.00000001,0.
 00021415,-0.00000782,-0.00010035,0.00002259,-0.00671853,-0.00114083,-0
 .01374546,-0.08913729,-0.00000621,-0.27387680,-0.00671872,0.00113992,-
 0.01374563,0.00026658,0.00002291,0.00002506,0.00004648,-0.00004173,0.0
 0009607,0.00020652,0.00007254,0.00020894,0.00020653,-0.00007251,0.0002
 0893,0.00004647,0.00004174,0.00009607,0.00012662,0.,-0.00001334,-0.000
 04207,0.,0.00014631,0.00026659,-0.00002288,0.00002506,0.00175885,-0.00
 194145,-0.00055633,0.00007948,0.00016895,0.00151053,-0.00020355,0.,0.0
 0310831,0.10028768,0.00000691,0.29602146,0.00375053,0.02238380,0.01579
 647,0.00184153,-0.00012256,-0.00041112,-0.00004863,-0.00046635,-0.0005
 8605,0.00023488,0.00024645,0.00032399,-0.00014200,0.00070121,-0.000105
 27,0.00052298,-0.00003496,0.00029109,-0.00270691,0.00110280,0.00252630
 ,-0.00136856,-0.00073930,0.00191008,-0.00125855,-0.00822359,-0.0068760
 2,-0.05190794,-0.02965789,-0.02284781,-0.00101286,0.00031587,0.0010369
 7,-0.00014926,-0.00025693,0.00005603,-0.00030422,0.00020470,-0.0002576
 2,-0.00004404,-0.00002528,-0.00005132,-0.00028622,0.00001365,-0.000192
 31,0.00003252,-0.00014180,-0.00006654,0.00003818,0.00002629,-0.0001123
 9,-0.00004347,0.00095869,-0.00004628,-0.00003075,0.00024524,0.00004074
 ,0.00042172,-0.00029464,-0.00033737,-0.00041507,-0.00033797,0.00013618
 ,0.00076362,0.00080809,0.00007950,0.05530299,-0.00106629,-0.00503393,-
 0.00354850,-0.00078122,0.00103554,-0.00013480,0.00017050,-0.00006540,-
 0.00009580,-0.00011587,-0.00009682,0.00000926,-0.00003441,-0.00024556,
 -0.00034287,0.00003025,-0.00008087,-0.00001284,0.00001210,-0.00093558,
 0.00014186,-0.00046236,-0.00302172,0.00229620,-0.00254270,-0.01745306,
 -0.01419801,-0.02839484,-0.20513549,-0.12086011,0.00040082,-0.00047737
 ,-0.00020005,0.00054112,0.00004212,0.00012648,0.00009232,0.00014553,0.
 00033882,-0.00003386,0.00002414,0.00000160,0.00014739,0.00007912,0.000
 09573,0.00007874,0.00007983,0.00002664,-0.00004672,0.00002933,0.000080
 95,0.00026368,-0.00035794,-0.00006698,-0.00010063,-0.00010747,-0.00017
 649,0.00029482,-0.00104622,-0.00066932,-0.00056177,-0.00090518,0.00032
 986,0.00057197,0.00157499,-0.00016893,0.03103097,0.22458634,-0.0016426
 9,-0.00961249,-0.00769954,-0.00133434,0.00054681,0.00095014,0.00022605
 ,-0.00028690,0.00018770,0.00014869,0.00020405,0.00021144,-0.00038983,-
 0.00034861,-0.00034391,-0.00015892,-0.00004909,-0.00023680,0.00155421,
 0.00076228,-0.00097116,0.00129741,0.00281059,-0.00125603,0.00167899,0.
 01530600,0.01093118,-0.02211143,-0.12361152,-0.13921126,0.00106998,-0.
 00049094,-0.00062915,0.00052038,0.00021723,0.00003672,-0.00023977,0.00
 007957,0.00011341,-0.00004847,0.00001787,0.00000904,0.00020055,0.00001
 332,0.00004456,0.00002802,0.00006646,0.00006898,-0.00002600,0.00000101
 ,0.00004083,0.00000836,-0.00024529,0.00007379,-0.00000826,0.00027906,0
 .00017842,-0.00033745,0.00066928,0.00038630,0.00045103,-0.00006085,-0.
 00004694,-0.00035127,-0.00054469,0.00151053,0.02321797,0.13251245,0.15
 001387,-0.02029450,0.00535831,-0.01837240,-0.00210734,0.00318521,0.002
 65054,0.00024403,-0.00025919,0.00095957,0.00003225,0.00011964,-0.00003
 369,-0.00020227,-0.00010551,0.00008609,-0.00143163,-0.00030082,-0.0008
 0394,-0.00077338,-0.00016884,0.00046100,-0.00017018,0.00023699,0.00009
 238,0.00742097,-0.00440584,0.01046161,-0.15883584,0.04417134,-0.120407
 46,0.00115328,-0.00080736,0.00003581,-0.00006548,-0.00013519,-0.000029
 33,0.00005167,-0.00000041,-0.00003465,-0.00002529,0.00006230,-0.000049
 50,-0.00002490,0.00009352,-0.00004379,-0.00034616,0.00048218,0.0002122
 0,0.00000815,0.00002477,0.00010248,-0.00008956,0.00033912,0.00006777,0
 .00010881,0.00009993,-0.00010413,-0.00003073,0.00010064,-0.00000822,0.
 00159310,0.00059765,0.00025372,0.00029394,-0.00257343,0.00175861,-0.00
 319048,0.00050599,-0.00375321,0.17668151,0.00581753,-0.00168924,0.0061
 7733,-0.00020970,-0.00006287,-0.00084692,-0.00011998,-0.00007927,-0.00
 021945,0.00000552,-0.00001263,0.00007537,0.00010842,0.00011169,-0.0000
 3047,0.00017052,0.00004918,0.00011571,0.00000107,-0.00020469,-0.000573
 03,-0.00005053,0.00043516,0.00018820,0.01617862,-0.00670345,0.02061046
 ,0.04420878,-0.06626579,0.04344292,-0.00047953,0.00096182,-0.00019946,
 0.00022404,0.00004306,0.00000756,0.00001262,0.00002367,0.00013456,-0.0
 0005683,0.00001955,-0.00003585,0.00000169,-0.00002539,0.00002435,0.000
 04185,-0.00005020,-0.00001333,0.00000027,0.00000184,-0.00000046,0.0001
 7516,-0.00017415,-0.00007902,-0.00009986,-0.00044713,-0.00026870,-0.00
 024523,-0.00010748,-0.00027906,0.00011462,0.00171314,-0.00066504,-0.00
 144159,-0.00375378,0.00194171,-0.01773649,0.00736568,-0.01823561,-0.04
 662097,0.06885129,0.01312260,-0.00390760,0.00927431,0.00168058,-0.0011
 5710,-0.00048539,-0.00004875,0.00013106,-0.00028280,-0.00004671,-0.000
 22306,0.00007541,0.00018115,0.00009454,-0.00000255,0.00048587,0.000014
 20,0.00023038,0.00020998,0.00022704,-0.00024573,-0.00008014,-0.0000589
 8,-0.00006154,-0.00940574,0.00485984,-0.01432333,-0.12139592,0.0435262
 9,-0.17062369,0.00035664,0.00007313,0.00210934,0.00003634,0.00003181,-
 0.00000653,0.00010091,0.00003215,0.00016636,0.00001579,-0.00002974,0.0
 0002777,-0.00000486,-0.00002802,0.00004228,0.00018704,-0.00014823,-0.0
 0007676,-0.00001527,0.00000129,-0.00000175,-0.00002138,-0.00010091,0.0
 0006305,-0.00010416,0.00026870,0.00031947,0.00004072,0.00017649,0.0001
 7841,0.00040712,-0.00058396,0.00083314,0.00132489,0.00355798,-0.000556
 34,-0.01352522,0.00451486,-0.01436211,0.12649854,-0.05127176,0.1877086
 1\\-0.00002930,0.00000369,0.00002415,-0.00000453,0.00000184,0.00001339
 ,0.00001949,-0.00000922,-0.00002714,0.00002201,0.00000914,-0.00002764,
 -0.00000570,-0.00000173,0.00001353,-0.00001800,-0.00000014,0.00000649,
 -0.00002955,-0.00000353,0.00002412,0.00006506,0.00006165,0.00005870,-0
 .00001469,-0.00000024,-0.00010088,0.00006533,-0.00006134,0.00005861,0.
 00000864,-0.00000494,-0.00000233,0.00000669,-0.00000340,-0.00000056,-0
 .00001551,-0.00001184,-0.00000433,-0.00001536,0.00001186,-0.00000435,0
 .00000680,0.00000342,-0.00000043,-0.00001697,0.,0.00000793,-0.00001545
 ,-0.00000012,0.00001503,0.00000858,0.00000500,-0.00000234,-0.00000959,
 0.00000043,-0.00001603,-0.00001646,-0.00001161,-0.00001473,0.00000493,
 0.00000011,0.00001407,0.00000973,0.00000001,-0.00000455,-0.00001667,0.
 00001155,-0.00001465,-0.00000949,-0.00000057,-0.00001607\\\@
 The archive entry for this job was punched.


 ALTHOUGH J.J. COULD DIAGNOSE THE FAULTS OF AN
 APPARATUS WITH UNCANNY ACCURACY, IT WAS JUST AS
 WELL NOT TO LET HIM HANDLE IT.
   -- GEORGE THOMPSON, ABOUT HIS FATHER
 Job cpu time:       0 days  2 hours  0 minutes 49.2 seconds.
 Elapsed time:       0 days  0 hours  7 minutes 39.4 seconds.
 File lengths (MBytes):  RWF=    294 Int=      0 D2E=      0 Chk=     14 Scr=      1
 Normal termination of Gaussian 16 at Tue Sep  6 23:11:30 2022.
