Job Start Time: Tue Sep  6 22:56:37 MDT 2022
SLURM Job ID: 71220
SLURM Job Name: Do3_crest_conf_1
 Entering Gaussian System, Link 0=/opt/apps/Gaussian/G16C/g16/g16
 Initial command:
 /opt/apps/Gaussian/G16C/g16/l1.exe "/tmp/Gau-2849797.inp" -scrdir="/tmp/"
 Entering Link 1 = /opt/apps/Gaussian/G16C/g16/l1.exe PID=   2849799.
  
 Copyright (c) 1988-2019, Gaussian, Inc.  All Rights Reserved.
  
 This is part of the Gaussian(R) 16 program.  It is based on
 the Gaussian(R) 09 system (copyright 2009, Gaussian, Inc.),
 the Gaussian(R) 03 system (copyright 2003, Gaussian, Inc.),
 the Gaussian(R) 98 system (copyright 1998, Gaussian, Inc.),
 the Gaussian(R) 94 system (copyright 1995, Gaussian, Inc.),
 the Gaussian 92(TM) system (copyright 1992, Gaussian, Inc.),
 the Gaussian 90(TM) system (copyright 1990, Gaussian, Inc.),
 the Gaussian 88(TM) system (copyright 1988, Gaussian, Inc.),
 the Gaussian 86(TM) system (copyright 1986, Carnegie Mellon
 University), and the Gaussian 82(TM) system (copyright 1983,
 Carnegie Mellon University). Gaussian is a federally registered
 trademark of Gaussian, Inc.
  
 This software contains proprietary and confidential information,
 including trade secrets, belonging to Gaussian, Inc.
  
 This software is provided under written license and may be
 used, copied, transmitted, or stored only in accord with that
 written license.
  
 The following legend is applicable only to US Government
 contracts under FAR:
  
                    RESTRICTED RIGHTS LEGEND
  
 Use, reproduction and disclosure by the US Government is
 subject to restrictions as set forth in subparagraphs (a)
 and (c) of the Commercial Computer Software - Restricted
 Rights clause in FAR 52.227-19.
  
 Gaussian, Inc.
 340 Quinnipiac St., Bldg. 40, Wallingford CT 06492
  
  
 ---------------------------------------------------------------
 Warning -- This program may not be used in any manner that
 competes with the business of Gaussian, Inc. or will provide
 assistance to any competitor of Gaussian, Inc.  The licensee
 of this program is prohibited from giving any competitor of
 Gaussian, Inc. access to this program.  By using this program,
 the user acknowledges that Gaussian, Inc. is engaged in the
 business of creating and licensing software in the field of
 computational chemistry and represents and warrants to the
 licensee that it is not a competitor of Gaussian, Inc. and that
 it will not use this program in any manner prohibited above.
 ---------------------------------------------------------------
  

 Cite this work as:
 Gaussian 16, Revision C.01,
 M. J. Frisch, G. W. Trucks, H. B. Schlegel, G. E. Scuseria, 
 M. A. Robb, J. R. Cheeseman, G. Scalmani, V. Barone, 
 G. A. Petersson, H. Nakatsuji, X. Li, M. Caricato, A. V. Marenich, 
 J. Bloino, B. G. Janesko, R. Gomperts, B. Mennucci, H. P. Hratchian, 
 J. V. Ortiz, A. F. Izmaylov, J. L. Sonnenberg, D. Williams-Young, 
 F. Ding, F. Lipparini, F. Egidi, J. Goings, B. Peng, A. Petrone, 
 T. Henderson, D. Ranasinghe, V. G. Zakrzewski, J. Gao, N. Rega, 
 G. Zheng, W. Liang, M. Hada, M. Ehara, K. Toyota, R. Fukuda, 
 J. Hasegawa, M. Ishida, T. Nakajima, Y. Honda, O. Kitao, H. Nakai, 
 T. Vreven, K. Throssell, J. A. Montgomery, Jr., J. E. Peralta, 
 F. Ogliaro, M. J. Bearpark, J. J. Heyd, E. N. Brothers, K. N. Kudin, 
 V. N. Staroverov, T. A. Keith, R. Kobayashi, J. Normand, 
 K. Raghavachari, A. P. Rendell, J. C. Burant, S. S. Iyengar, 
 J. Tomasi, M. Cossi, J. M. Millam, M. Klene, C. Adamo, R. Cammi, 
 J. W. Ochterski, R. L. Martin, K. Morokuma, O. Farkas, 
 J. B. Foresman, and D. J. Fox, Gaussian, Inc., Wallingford CT, 2019.
 
 ******************************************
 Gaussian 16:  AS64L-G16RevC.01  3-Jul-2019
                 6-Sep-2022 
 ******************************************
 %nprocshared=16
 Will use up to   16 processors via shared memory.
 %mem=72GB
 -------------------------
 # B3LYP/def2tzvp opt freq
 -------------------------
 1/18=20,19=15,26=3,38=1/1,3;
 2/9=110,12=2,17=6,18=5,40=1/2;
 3/5=44,7=101,11=2,25=1,30=1,71=1,74=-5/1,2,3;
 4//1;
 5/5=2,38=5/2;
 6/7=2,8=2,9=2,10=2,28=1/1;
 7//1,2,3,16;
 1/18=20,19=15,26=3/3(2);
 2/9=110/2;
 99//99;
 2/9=110/2;
 3/5=44,7=101,11=2,25=1,30=1,71=1,74=-5/1,2,3;
 4/5=5,16=3,69=1/1;
 5/5=2,38=5/2;
 7//1,2,3,16;
 1/18=20,19=15,26=3/3(-5);
 2/9=110/2;
 6/7=2,8=2,9=2,10=2,19=2,28=1/1;
 99/9=1/99;
 ----------------
 Do3_crest_conf_1
 ----------------
 Symbolic Z-matrix:
 Charge =  0 Multiplicity = 1
 C                     0.6601    1.0444    0.0373 
 C                    -0.6607    1.044     0.0373 
 C                    -1.225    -0.3396   -0.0886 
 C                     0.0004   -1.2485    0.1131 
 C                     1.2251   -0.3389   -0.0887 
 H                     1.2989    1.9091    0.0944 
 H                    -1.3       1.9083    0.0943 
 H                    -2.0084   -0.5322    0.6459 
 H                    -1.6658   -0.4722   -1.0811 
 H                     0.0007   -2.0932   -0.5735 
 H                     0.0005   -1.6427    1.1299 
 H                     2.0087   -0.5311    0.6459 
 H                     1.666    -0.4711   -1.0811 
 

 GradGradGradGradGradGradGradGradGradGradGradGradGradGradGradGradGradGrad
 Berny optimization.
 Initialization pass.
                           ----------------------------
                           !    Initial Parameters    !
                           ! (Angstroms and Degrees)  !
 --------------------------                            --------------------------
 ! Name  Definition              Value          Derivative Info.                !
 --------------------------------------------------------------------------------
 ! R1    R(1,2)                  1.3208         estimate D2E/DX2                !
 ! R2    R(1,5)                  1.4995         estimate D2E/DX2                !
 ! R3    R(1,6)                  1.0766         estimate D2E/DX2                !
 ! R4    R(2,3)                  1.4995         estimate D2E/DX2                !
 ! R5    R(2,7)                  1.0766         estimate D2E/DX2                !
 ! R6    R(3,4)                  1.539          estimate D2E/DX2                !
 ! R7    R(3,8)                  1.091          estimate D2E/DX2                !
 ! R8    R(3,9)                  1.094          estimate D2E/DX2                !
 ! R9    R(4,5)                  1.5388         estimate D2E/DX2                !
 ! R10   R(4,10)                 1.0885         estimate D2E/DX2                !
 ! R11   R(4,11)                 1.0905         estimate D2E/DX2                !
 ! R12   R(5,12)                 1.0911         estimate D2E/DX2                !
 ! R13   R(5,13)                 1.094          estimate D2E/DX2                !
 ! A1    A(2,1,5)              112.1172         estimate D2E/DX2                !
 ! A2    A(2,1,6)              126.413          estimate D2E/DX2                !
 ! A3    A(5,1,6)              121.4543         estimate D2E/DX2                !
 ! A4    A(1,2,3)              112.1228         estimate D2E/DX2                !
 ! A5    A(1,2,7)              126.4126         estimate D2E/DX2                !
 ! A6    A(3,2,7)              121.449          estimate D2E/DX2                !
 ! A7    A(2,3,4)              103.5495         estimate D2E/DX2                !
 ! A8    A(2,3,8)              112.1216         estimate D2E/DX2                !
 ! A9    A(2,3,9)              109.8534         estimate D2E/DX2                !
 ! A10   A(4,3,8)              112.2876         estimate D2E/DX2                !
 ! A11   A(4,3,9)              111.6005         estimate D2E/DX2                !
 ! A12   A(8,3,9)              107.4598         estimate D2E/DX2                !
 ! A13   A(3,4,5)              105.511          estimate D2E/DX2                !
 ! A14   A(3,4,10)             112.0766         estimate D2E/DX2                !
 ! A15   A(3,4,11)             109.6186         estimate D2E/DX2                !
 ! A16   A(5,4,10)             112.0707         estimate D2E/DX2                !
 ! A17   A(5,4,11)             109.6252         estimate D2E/DX2                !
 ! A18   A(10,4,11)            107.9147         estimate D2E/DX2                !
 ! A19   A(1,5,4)              103.5558         estimate D2E/DX2                !
 ! A20   A(1,5,12)             112.1173         estimate D2E/DX2                !
 ! A21   A(1,5,13)             109.8501         estimate D2E/DX2                !
 ! A22   A(4,5,12)             112.2803         estimate D2E/DX2                !
 ! A23   A(4,5,13)             111.6105         estimate D2E/DX2                !
 ! A24   A(12,5,13)            107.4586         estimate D2E/DX2                !
 ! D1    D(5,1,2,3)              0.004          estimate D2E/DX2                !
 ! D2    D(5,1,2,7)           -178.5684         estimate D2E/DX2                !
 ! D3    D(6,1,2,3)            178.5789         estimate D2E/DX2                !
 ! D4    D(6,1,2,7)              0.0065         estimate D2E/DX2                !
 ! D5    D(2,1,5,4)            -10.9217         estimate D2E/DX2                !
 ! D6    D(2,1,5,12)          -132.1849         estimate D2E/DX2                !
 ! D7    D(2,1,5,13)           108.4073         estimate D2E/DX2                !
 ! D8    D(6,1,5,4)            170.4226         estimate D2E/DX2                !
 ! D9    D(6,1,5,12)            49.1594         estimate D2E/DX2                !
 ! D10   D(6,1,5,13)           -70.2484         estimate D2E/DX2                !
 ! D11   D(1,2,3,4)             10.9144         estimate D2E/DX2                !
 ! D12   D(1,2,3,8)            132.1846         estimate D2E/DX2                !
 ! D13   D(1,2,3,9)           -108.4011         estimate D2E/DX2                !
 ! D14   D(7,2,3,4)           -170.4323         estimate D2E/DX2                !
 ! D15   D(7,2,3,8)            -49.1621         estimate D2E/DX2                !
 ! D16   D(7,2,3,9)             70.2522         estimate D2E/DX2                !
 ! D17   D(2,3,4,5)            -16.8516         estimate D2E/DX2                !
 ! D18   D(2,3,4,10)          -139.0849         estimate D2E/DX2                !
 ! D19   D(2,3,4,11)           101.1157         estimate D2E/DX2                !
 ! D20   D(8,3,4,5)           -138.01           estimate D2E/DX2                !
 ! D21   D(8,3,4,10)            99.7566         estimate D2E/DX2                !
 ! D22   D(8,3,4,11)           -20.0427         estimate D2E/DX2                !
 ! D23   D(9,3,4,5)            101.2568         estimate D2E/DX2                !
 ! D24   D(9,3,4,10)           -20.9765         estimate D2E/DX2                !
 ! D25   D(9,3,4,11)          -140.7759         estimate D2E/DX2                !
 ! D26   D(3,4,5,1)             16.8545         estimate D2E/DX2                !
 ! D27   D(3,4,5,12)           138.0079         estimate D2E/DX2                !
 ! D28   D(3,4,5,13)          -101.2585         estimate D2E/DX2                !
 ! D29   D(10,4,5,1)           139.0916         estimate D2E/DX2                !
 ! D30   D(10,4,5,12)          -99.755          estimate D2E/DX2                !
 ! D31   D(10,4,5,13)           20.9786         estimate D2E/DX2                !
 ! D32   D(11,4,5,1)          -101.1084         estimate D2E/DX2                !
 ! D33   D(11,4,5,12)           20.045          estimate D2E/DX2                !
 ! D34   D(11,4,5,13)          140.7786         estimate D2E/DX2                !
 --------------------------------------------------------------------------------
 Trust Radius=3.00D-01 FncErr=1.00D-07 GrdErr=1.00D-06 EigMax=2.50D+02 EigMin=1.00D-04
 Number of steps in this run=     81 maximum allowed number of steps=    100.
 GradGradGradGradGradGradGradGradGradGradGradGradGradGradGradGradGradGrad

                          Input orientation:                          
 ---------------------------------------------------------------------
 Center     Atomic      Atomic             Coordinates (Angstroms)
 Number     Number       Type             X           Y           Z
 ---------------------------------------------------------------------
      1          6           0        0.660100    1.044400    0.037300
      2          6           0       -0.660700    1.044000    0.037300
      3          6           0       -1.225000   -0.339600   -0.088600
      4          6           0        0.000400   -1.248500    0.113100
      5          6           0        1.225100   -0.338900   -0.088700
      6          1           0        1.298900    1.909100    0.094400
      7          1           0       -1.300000    1.908300    0.094300
      8          1           0       -2.008400   -0.532200    0.645900
      9          1           0       -1.665800   -0.472200   -1.081100
     10          1           0        0.000700   -2.093200   -0.573500
     11          1           0        0.000500   -1.642700    1.129900
     12          1           0        2.008700   -0.531100    0.645900
     13          1           0        1.666000   -0.471100   -1.081100
 ---------------------------------------------------------------------
                    Distance matrix (angstroms):
                    1          2          3          4          5
     1  C    0.000000
     2  C    1.320800   0.000000
     3  C    2.341988   1.499545   0.000000
     4  C    2.387120   2.387123   1.538957   0.000000
     5  C    1.499540   2.341907   2.450100   1.538826   0.000000
     6  H    1.076583   2.142823   3.385293   3.414219   2.256652
     7  H    2.142794   1.076554   2.256575   3.414203   3.385192
     8  H    3.158632   2.161272   1.091009   2.198235   3.321524
     9  H    2.993444   2.135394   1.094049   2.192026   3.059400
    10  H    3.263804   3.263825   2.193760   1.088548   2.193571
    11  H    2.974786   2.974780   2.164408   1.090539   2.164376
    12  H    2.161323   3.158644   3.321593   2.198137   1.091149
    13  H    2.135274   2.993306   3.059449   2.191960   1.093950
                    6          7          8          9         10
     6  H    0.000000
     7  H    2.598900   0.000000
     8  H    4.147569   2.600410   0.000000
     9  H    3.980180   2.679954   1.761676   0.000000
    10  H    4.260260   4.260256   2.821372   2.379605   0.000000
    11  H    3.920891   3.920889   2.345878   3.005852   1.761965
    12  H    2.600489   4.147581   4.017100   4.060535   2.821198
    13  H    2.679909   3.979983   4.060478   3.331800   2.379515
                   11         12         13
    11  H    0.000000
    12  H    2.345800   0.000000
    13  H    3.005837   1.761696   0.000000
 Stoichiometry    C5H8
 Framework group  C1[X(C5H8)]
 Deg. of freedom    33
 Full point group                 C1      NOp   1
 Largest Abelian subgroup         C1      NOp   1
 Largest concise Abelian subgroup C1      NOp   1
                         Standard orientation:                         
 ---------------------------------------------------------------------
 Center     Atomic      Atomic             Coordinates (Angstroms)
 Number     Number       Type             X           Y           Z
 ---------------------------------------------------------------------
      1          6           0       -0.660312    1.069464   -0.038432
      2          6           0        0.660488    1.069327   -0.038414
      3          6           0        1.225061   -0.314223    0.086805
      4          6           0       -0.000155   -1.223266   -0.115364
      5          6           0       -1.225039   -0.314010    0.086872
      6          1           0       -1.299283    1.934066   -0.095110
      7          1           0        1.299617    1.933782   -0.094975
      8          1           0        2.008510   -0.506302   -0.647780
      9          1           0        1.665874   -0.447230    1.079245
     10          1           0       -0.000297   -2.068308    0.570815
     11          1           0       -0.000163   -1.616960   -1.132360
     12          1           0       -2.008591   -0.506001   -0.647835
     13          1           0       -1.665926   -0.446792    1.079200
 ---------------------------------------------------------------------
 Rotational constants (GHZ):           7.3949845           7.3432255           3.9873182
 Standard basis: def2TZVP (5D, 7F)
 There are   228 symmetry adapted cartesian basis functions of A   symmetry.
 There are   203 symmetry adapted basis functions of A   symmetry.
   203 basis functions,   319 primitive gaussians,   228 cartesian basis functions
    19 alpha electrons       19 beta electrons
       nuclear repulsion energy       172.3060769778 Hartrees.
 NAtoms=   13 NActive=   13 NUniq=   13 SFac= 1.00D+00 NAtFMM=   60 NAOKFM=F Big=F
 Integral buffers will be    131072 words long.
 Raffenetti 2 integral format.
 Two-electron integral symmetry is turned on.
 One-electron integrals computed using PRISM.
   1 Symmetry operations used in ECPInt.
 ECPInt:  NShTT=    3828 NPrTT=   11160 LenC2=    3820 LenP2D=    9640.
 LDataN:  DoStor=T MaxTD1= 6 Len=  172
 NBasis=   203 RedAO= T EigKep=  1.11D-04  NBF=   203
 NBsUse=   203 1.00D-06 EigRej= -1.00D+00 NBFU=   203
 ExpMin= 9.52D-02 ExpMax= 1.36D+04 ExpMxC= 4.63D+02 IAcc=3 IRadAn=         5 AccDes= 0.00D+00
 Harris functional with IExCor=  402 and IRadAn=       5 diagonalized for initial guess.
 HarFok:  IExCor=  402 AccDes= 0.00D+00 IRadAn=         5 IDoV= 1 UseB2=F ITyADJ=14
 ICtDFT=  3500011 ScaDFX=  1.000000  1.000000  1.000000  1.000000
 FoFCou: FMM=F IPFlag=           0 FMFlag=      100000 FMFlg1=           0
         NFxFlg=           0 DoJE=T BraDBF=F KetDBF=T FulRan=T
         wScrn=  0.000000 ICntrl=       500 IOpCl=  0 I1Cent=   200000004 NGrid=           0
         NMat0=    1 NMatS0=      1 NMatT0=    0 NMatD0=    1 NMtDS0=    0 NMtDT0=    0
 Petite list used in FoFCou.
 Requested convergence on RMS density matrix=1.00D-08 within 128 cycles.
 Requested convergence on MAX density matrix=1.00D-06.
 Requested convergence on             energy=1.00D-06.
 No special actions if energy rises.
 Integral accuracy reduced to 1.0D-05 until final iterations.
 Initial convergence to 1.0D-05 achieved.  Increase integral accuracy.
 SCF Done:  E(RB3LYP) =  -195.401297172     A.U. after   11 cycles
            NFock= 11  Conv=0.57D-08     -V/T= 2.0050

 **********************************************************************

            Population analysis using the SCF Density.

 **********************************************************************

 Orbital symmetries:
       Occupied  (A) (A) (A) (A) (A) (A) (A) (A) (A) (A) (A) (A)
                 (A) (A) (A) (A) (A) (A) (A)
       Virtual   (A) (A) (A) (A) (A) (A) (A) (A) (A) (A) (A) (A)
                 (A) (A) (A) (A) (A) (A) (A) (A) (A) (A) (A) (A)
                 (A) (A) (A) (A) (A) (A) (A) (A) (A) (A) (A) (A)
                 (A) (A) (A) (A) (A) (A) (A) (A) (A) (A) (A) (A)
                 (A) (A) (A) (A) (A) (A) (A) (A) (A) (A) (A) (A)
                 (A) (A) (A) (A) (A) (A) (A) (A) (A) (A) (A) (A)
                 (A) (A) (A) (A) (A) (A) (A) (A) (A) (A) (A) (A)
                 (A) (A) (A) (A) (A) (A) (A) (A) (A) (A) (A) (A)
                 (A) (A) (A) (A) (A) (A) (A) (A) (A) (A) (A) (A)
                 (A) (A) (A) (A) (A) (A) (A) (A) (A) (A) (A) (A)
                 (A) (A) (A) (A) (A) (A) (A) (A) (A) (A) (A) (A)
                 (A) (A) (A) (A) (A) (A) (A) (A) (A) (A) (A) (A)
                 (A) (A) (A) (A) (A) (A) (A) (A) (A) (A) (A) (A)
                 (A) (A) (A) (A) (A) (A) (A) (A) (A) (A) (A) (A)
                 (A) (A) (A) (A) (A) (A) (A) (A) (A) (A) (A) (A)
                 (A) (A) (A) (A)
 The electronic state is 1-A.
 Alpha  occ. eigenvalues --  -10.16486 -10.16485 -10.16325 -10.16078 -10.15983
 Alpha  occ. eigenvalues --   -0.84437  -0.70941  -0.70692  -0.57327  -0.52991
 Alpha  occ. eigenvalues --   -0.49995  -0.47190  -0.40174  -0.38282  -0.35075
 Alpha  occ. eigenvalues --   -0.34609  -0.34509  -0.34255  -0.24379
 Alpha virt. eigenvalues --    0.01736   0.03632   0.07216   0.07454   0.07978
 Alpha virt. eigenvalues --    0.09778   0.10709   0.12235   0.13643   0.16348
 Alpha virt. eigenvalues --    0.16696   0.18302   0.20025   0.21140   0.23353
 Alpha virt. eigenvalues --    0.23571   0.24325   0.26370   0.29783   0.31636
 Alpha virt. eigenvalues --    0.34439   0.36138   0.37037   0.39488   0.40697
 Alpha virt. eigenvalues --    0.41380   0.41613   0.41721   0.42693   0.43479
 Alpha virt. eigenvalues --    0.43761   0.44503   0.45546   0.46729   0.47413
 Alpha virt. eigenvalues --    0.51672   0.52251   0.54446   0.60548   0.63380
 Alpha virt. eigenvalues --    0.64354   0.70391   0.71679   0.76452   0.79362
 Alpha virt. eigenvalues --    0.85958   0.90616   0.91758   0.92294   0.94959
 Alpha virt. eigenvalues --    0.97877   0.98296   1.00077   1.02448   1.02892
 Alpha virt. eigenvalues --    1.08328   1.10765   1.11410   1.13465   1.15414
 Alpha virt. eigenvalues --    1.17848   1.20955   1.25236   1.29050   1.31294
 Alpha virt. eigenvalues --    1.33903   1.41560   1.42612   1.46546   1.49375
 Alpha virt. eigenvalues --    1.53091   1.54316   1.57944   1.60591   1.62750
 Alpha virt. eigenvalues --    1.63162   1.64599   1.65914   1.73993   1.76930
 Alpha virt. eigenvalues --    1.78609   1.81756   1.84800   1.88687   1.89945
 Alpha virt. eigenvalues --    1.94562   1.97528   1.97914   1.98932   2.07787
 Alpha virt. eigenvalues --    2.08351   2.14551   2.16913   2.17738   2.25091
 Alpha virt. eigenvalues --    2.25506   2.34451   2.34497   2.36028   2.38321
 Alpha virt. eigenvalues --    2.40271   2.41358   2.51870   2.52117   2.53003
 Alpha virt. eigenvalues --    2.54804   2.57146   2.60279   2.62016   2.63216
 Alpha virt. eigenvalues --    2.67767   2.68859   2.74342   2.76584   2.79155
 Alpha virt. eigenvalues --    2.80934   2.84171   2.87613   2.88180   2.90120
 Alpha virt. eigenvalues --    2.91736   2.92812   2.99660   3.00027   3.04979
 Alpha virt. eigenvalues --    3.06065   3.08803   3.09270   3.10938   3.14382
 Alpha virt. eigenvalues --    3.15437   3.21054   3.22867   3.27097   3.29914
 Alpha virt. eigenvalues --    3.30686   3.31075   3.32222   3.34538   3.35249
 Alpha virt. eigenvalues --    3.40594   3.44271   3.47566   3.48651   3.48728
 Alpha virt. eigenvalues --    3.59231   3.63601   3.64874   3.66325   3.72196
 Alpha virt. eigenvalues --    3.80508   3.86913   3.87145   3.89747   3.90776
 Alpha virt. eigenvalues --    3.94667   3.96029   3.99499   4.07168   4.14001
 Alpha virt. eigenvalues --    4.15422   4.20471   4.24184   4.26503   4.32437
 Alpha virt. eigenvalues --    4.36690   4.37865   4.46889   4.50468   4.57652
 Alpha virt. eigenvalues --    4.63863   4.70454   4.73308   4.74048   4.82478
 Alpha virt. eigenvalues --    4.92835   4.93309   5.10481   5.17681  22.01598
 Alpha virt. eigenvalues --   22.39182  22.48382  22.54051  22.85918
          Condensed to atoms (all electrons):
               1          2          3          4          5          6
     1  C    5.041522   0.623000  -0.065326  -0.060724   0.303537   0.406143
     2  C    0.623000   5.041500   0.303542  -0.060739  -0.065344  -0.030406
     3  C   -0.065326   0.303542   4.911626   0.346758  -0.081235   0.008624
     4  C   -0.060724  -0.060739   0.346758   4.922096   0.346745   0.006392
     5  C    0.303537  -0.065344  -0.081235   0.346745   4.911615  -0.041516
     6  H    0.406143  -0.030406   0.008624   0.006392  -0.041516   0.552508
     7  H   -0.030409   0.406146  -0.041526   0.006394   0.008625  -0.004912
     8  H    0.000317  -0.043283   0.417820  -0.036419   0.011529  -0.000309
     9  H   -0.004302  -0.037771   0.393773  -0.034597   0.003383  -0.000503
    10  H    0.008640   0.008627  -0.043902   0.422429  -0.043937  -0.000233
    11  H    0.006010   0.006024  -0.041736   0.410124  -0.041707  -0.000284
    12  H   -0.043275   0.000318   0.011537  -0.036425   0.417762  -0.000704
    13  H   -0.037793  -0.004297   0.003373  -0.034598   0.393837   0.001187
               7          8          9         10         11         12
     1  C   -0.030409   0.000317  -0.004302   0.008640   0.006010  -0.043275
     2  C    0.406146  -0.043283  -0.037771   0.008627   0.006024   0.000318
     3  C   -0.041526   0.417820   0.393773  -0.043902  -0.041736   0.011537
     4  C    0.006394  -0.036419  -0.034597   0.422429   0.410124  -0.036425
     5  C    0.008625   0.011529   0.003383  -0.043937  -0.041707   0.417762
     6  H   -0.004912  -0.000309  -0.000503  -0.000233  -0.000284  -0.000704
     7  H    0.552523  -0.000703   0.001187  -0.000233  -0.000284  -0.000309
     8  H   -0.000703   0.614230  -0.040838   0.002143  -0.013636   0.000310
     9  H    0.001187  -0.040838   0.633559  -0.008970   0.007982  -0.001142
    10  H   -0.000233   0.002143  -0.008970   0.598473  -0.030213   0.002146
    11  H   -0.000284  -0.013636   0.007982  -0.030213   0.615437  -0.013646
    12  H   -0.000309   0.000310  -0.001142   0.002146  -0.013646   0.614319
    13  H   -0.000503  -0.001142   0.003838  -0.008972   0.007981  -0.040838
              13
     1  C   -0.037793
     2  C   -0.004297
     3  C    0.003373
     4  C   -0.034598
     5  C    0.393837
     6  H    0.001187
     7  H   -0.000503
     8  H   -0.001142
     9  H    0.003838
    10  H   -0.008972
    11  H    0.007981
    12  H   -0.040838
    13  H    0.633509
 Mulliken charges:
               1
     1  C   -0.147339
     2  C   -0.147316
     3  C   -0.123328
     4  C   -0.197435
     5  C   -0.123295
     6  H    0.104013
     7  H    0.104004
     8  H    0.089981
     9  H    0.084400
    10  H    0.094001
    11  H    0.087947
    12  H    0.089949
    13  H    0.084418
 Sum of Mulliken charges =  -0.00000
 Mulliken charges with hydrogens summed into heavy atoms:
               1
     1  C   -0.043326
     2  C   -0.043312
     3  C    0.051053
     4  C   -0.015487
     5  C    0.051072
 Electronic spatial extent (au):  <R**2>=            372.4254
 Charge=             -0.0000 electrons
 Dipole moment (field-independent basis, Debye):
    X=             -0.0000    Y=             -0.1930    Z=              0.0580  Tot=              0.2016
 Quadrupole moment (field-independent basis, Debye-Ang):
   XX=            -31.0652   YY=            -31.8461   ZZ=            -32.6626
   XY=             -0.0003   XZ=             -0.0004   YZ=             -0.1144
 Traceless Quadrupole moment (field-independent basis, Debye-Ang):
   XX=              0.7928   YY=              0.0119   ZZ=             -0.8046
   XY=             -0.0003   XZ=             -0.0004   YZ=             -0.1144
 Octapole moment (field-independent basis, Debye-Ang**2):
  XXX=              0.0019  YYY=              2.3690  ZZZ=              0.6271  XYY=             -0.0007
  XXY=              2.2384  XXZ=             -0.8224  XZZ=             -0.0004  YZZ=             -3.2367
  YYZ=             -0.0923  XYZ=              0.0005
 Hexadecapole moment (field-independent basis, Debye-Ang**3):
 XXXX=           -237.3765 YYYY=           -227.7185 ZZZZ=            -59.6684 XXXY=             -0.0004
 XXXZ=             -0.0031 YYYX=             -0.0015 YYYZ=             -2.5357 ZZZX=             -0.0013
 ZZZY=              0.8260 XXYY=            -74.3700 XXZZ=            -47.2865 YYZZ=            -50.6468
 XXYZ=              0.3369 YYXZ=             -0.0002 ZZXY=             -0.0006
 N-N= 1.723060769778D+02 E-N=-7.971510870229D+02  KE= 1.944387670865D+02
   1 Symmetry operations used in ECPInt.
 ECPInt:  NShTT=    3828 NPrTT=   11160 LenC2=    3820 LenP2D=    9640.
 LDataN:  DoStor=T MaxTD1= 7 Len=  274
 Calling FoFJK, ICntrl=      2127 FMM=F ISym2X=0 I1Cent= 0 IOpClX= 0 NMat=1 NMatS=1 NMatT=0.
 ***** Axes restored to original set *****
 -------------------------------------------------------------------
 Center     Atomic                   Forces (Hartrees/Bohr)
 Number     Number              X              Y              Z
 -------------------------------------------------------------------
      1        6           0.006273718    0.000766935    0.001155099
      2        6          -0.006286900    0.000761752    0.001151230
      3        6          -0.003058242   -0.000473268   -0.000419300
      4        6          -0.000041582   -0.003527634    0.000037053
      5        6           0.003162880   -0.000443136   -0.000283922
      6        1           0.000726744    0.004978200   -0.000065245
      7        1          -0.000740438    0.004998357   -0.000057260
      8        1          -0.002241382   -0.000984524   -0.000750633
      9        1          -0.002580148   -0.000995458   -0.000471065
     10        1          -0.000008573   -0.002021733    0.000936090
     11        1           0.000005686   -0.001081605    0.000105939
     12        1           0.002190158   -0.000965074   -0.000812361
     13        1           0.002598079   -0.001012812   -0.000525623
 -------------------------------------------------------------------
 Cartesian Forces:  Max     0.006286900 RMS     0.002270519

 GradGradGradGradGradGradGradGradGradGradGradGradGradGradGradGradGradGrad
 Berny optimization.
 FormGI is forming the generalized inverse of G from B-inverse, IUseBI=4.
 Internal  Forces:  Max     0.008787113 RMS     0.002189987
 Search for a local minimum.
 Step number   1 out of a maximum of   81
 All quantities printed in internal units (Hartrees-Bohrs-Radians)
 Mixed Optimization -- RFO/linear search
 Second derivative matrix not updated -- first step.
 ITU=  0
     Eigenvalues ---    0.00386   0.01092   0.01418   0.02010   0.03411
     Eigenvalues ---    0.03508   0.04923   0.05206   0.05812   0.05904
     Eigenvalues ---    0.07084   0.07577   0.08256   0.08278   0.09584
     Eigenvalues ---    0.11129   0.15991   0.15995   0.21604   0.21684
     Eigenvalues ---    0.27675   0.27800   0.30867   0.32182   0.34349
     Eigenvalues ---    0.34360   0.34680   0.34696   0.34750   0.34981
     Eigenvalues ---    0.36410   0.36414   0.58421
 RFO step:  Lambda=-1.25689041D-03 EMin= 3.85931731D-03
 Linear search not attempted -- first point.
 Iteration  1 RMS(Cart)=  0.01445191 RMS(Int)=  0.00009752
 Iteration  2 RMS(Cart)=  0.00010147 RMS(Int)=  0.00004210
 Iteration  3 RMS(Cart)=  0.00000001 RMS(Int)=  0.00004210
 Variable       Old X    -DE/DX   Delta X   Delta X   Delta X     New X
                                 (Linear)    (Quad)   (Total)
    R1        2.49595   0.00879   0.00000   0.01549   0.01549   2.51144
    R2        2.83372   0.00607   0.00000   0.01957   0.01957   2.85329
    R3        2.03445   0.00443   0.00000   0.01211   0.01211   2.04656
    R4        2.83373   0.00606   0.00000   0.01955   0.01954   2.85327
    R5        2.03439   0.00445   0.00000   0.01218   0.01218   2.04657
    R6        2.90821   0.00689   0.00000   0.02178   0.02179   2.92999
    R7        2.06171   0.00128   0.00000   0.00367   0.00367   2.06538
    R8        2.06745   0.00159   0.00000   0.00460   0.00460   2.07206
    R9        2.90796   0.00694   0.00000   0.02195   0.02195   2.92991
   R10        2.05706   0.00098   0.00000   0.00279   0.00279   2.05984
   R11        2.06082   0.00049   0.00000   0.00140   0.00140   2.06223
   R12        2.06197   0.00120   0.00000   0.00344   0.00344   2.06541
   R13        2.06727   0.00165   0.00000   0.00477   0.00477   2.07204
    A1        1.95681   0.00008   0.00000   0.00172   0.00171   1.95852
    A2        2.20632  -0.00243   0.00000  -0.01588  -0.01591   2.19042
    A3        2.11978   0.00235   0.00000   0.01385   0.01381   2.13359
    A4        1.95691   0.00007   0.00000   0.00164   0.00162   1.95853
    A5        2.20632  -0.00243   0.00000  -0.01586  -0.01589   2.19043
    A6        2.11968   0.00236   0.00000   0.01392   0.01388   2.13356
    A7        1.80728  -0.00085   0.00000  -0.00432  -0.00431   1.80297
    A8        1.95689   0.00052   0.00000   0.00792   0.00790   1.96479
    A9        1.91730   0.00090   0.00000   0.01021   0.01021   1.92752
   A10        1.95979   0.00061   0.00000   0.00326   0.00328   1.96307
   A11        1.94780   0.00043   0.00000   0.00489   0.00486   1.95265
   A12        1.87553  -0.00150   0.00000  -0.02036  -0.02035   1.85518
   A13        1.84151   0.00155   0.00000   0.00240   0.00236   1.84388
   A14        1.95611  -0.00021   0.00000   0.00759   0.00753   1.96363
   A15        1.91321  -0.00029   0.00000  -0.00129  -0.00127   1.91194
   A16        1.95600  -0.00020   0.00000   0.00773   0.00766   1.96367
   A17        1.91332  -0.00029   0.00000  -0.00137  -0.00134   1.91198
   A18        1.88347  -0.00054   0.00000  -0.01479  -0.01477   1.86870
   A19        1.80739  -0.00087   0.00000  -0.00441  -0.00440   1.80299
   A20        1.95682   0.00053   0.00000   0.00797   0.00795   1.96477
   A21        1.91725   0.00091   0.00000   0.01026   0.01026   1.92751
   A22        1.95966   0.00062   0.00000   0.00340   0.00342   1.96308
   A23        1.94797   0.00043   0.00000   0.00475   0.00471   1.95268
   A24        1.87551  -0.00150   0.00000  -0.02036  -0.02036   1.85515
    D1        0.00007  -0.00000   0.00000  -0.00010  -0.00010  -0.00003
    D2       -3.11661   0.00006   0.00000   0.01364   0.01345  -3.10315
    D3        3.11679  -0.00007   0.00000  -0.01382  -0.01363   3.10316
    D4        0.00011  -0.00000   0.00000  -0.00007  -0.00007   0.00004
    D5       -0.19062   0.00009   0.00000  -0.00480  -0.00481  -0.19542
    D6       -2.30706  -0.00040   0.00000  -0.01036  -0.01039  -2.31745
    D7        1.89206   0.00054   0.00000   0.00323   0.00321   1.89527
    D8        2.97444   0.00023   0.00000   0.00862   0.00869   2.98313
    D9        0.85799  -0.00026   0.00000   0.00305   0.00311   0.86110
   D10       -1.22607   0.00068   0.00000   0.01664   0.01670  -1.20936
   D11        0.19049  -0.00008   0.00000   0.00497   0.00498   0.19547
   D12        2.30706   0.00039   0.00000   0.01040   0.01042   2.31748
   D13       -1.89196  -0.00055   0.00000  -0.00325  -0.00323  -1.89518
   D14       -2.97461  -0.00022   0.00000  -0.00847  -0.00855  -2.98315
   D15       -0.85804   0.00025   0.00000  -0.00305  -0.00310  -0.86114
   D16        1.22613  -0.00069   0.00000  -0.01669  -0.01675   1.20938
   D17       -0.29412  -0.00016   0.00000  -0.00798  -0.00800  -0.30211
   D18       -2.42749  -0.00081   0.00000  -0.02347  -0.02349  -2.45098
   D19        1.76480   0.00020   0.00000  -0.00891  -0.00891   1.75589
   D20       -2.40873  -0.00058   0.00000  -0.01654  -0.01655  -2.42528
   D21        1.74108  -0.00122   0.00000  -0.03203  -0.03205   1.70904
   D22       -0.34981  -0.00021   0.00000  -0.01747  -0.01747  -0.36728
   D23        1.76726   0.00061   0.00000   0.00394   0.00393   1.77120
   D24       -0.36611  -0.00003   0.00000  -0.01155  -0.01157  -0.37767
   D25       -2.45700   0.00098   0.00000   0.00301   0.00301  -2.45399
   D26        0.29417   0.00016   0.00000   0.00791   0.00793   0.30210
   D27        2.40869   0.00058   0.00000   0.01655   0.01657   2.42526
   D28       -1.76729  -0.00061   0.00000  -0.00394  -0.00393  -1.77123
   D29        2.42761   0.00079   0.00000   0.02332   0.02334   2.45094
   D30       -1.74105   0.00122   0.00000   0.03196   0.03197  -1.70908
   D31        0.36615   0.00002   0.00000   0.01146   0.01147   0.37762
   D32       -1.76467  -0.00021   0.00000   0.00879   0.00879  -1.75588
   D33        0.34985   0.00021   0.00000   0.01743   0.01743   0.36728
   D34        2.45705  -0.00098   0.00000  -0.00306  -0.00307   2.45398
         Item               Value     Threshold  Converged?
 Maximum Force            0.008787     0.000450     NO 
 RMS     Force            0.002190     0.000300     NO 
 Maximum Displacement     0.041834     0.001800     NO 
 RMS     Displacement     0.014444     0.001200     NO 
 Predicted change in Energy=-6.359999D-04
 GradGradGradGradGradGradGradGradGradGradGradGradGradGradGradGradGradGrad

                          Input orientation:                          
 ---------------------------------------------------------------------
 Center     Atomic      Atomic             Coordinates (Angstroms)
 Number     Number       Type             X           Y           Z
 ---------------------------------------------------------------------
      1          6           0        0.664183    1.050907    0.044553
      2          6           0       -0.664813    1.050509    0.044584
      3          6           0       -1.235278   -0.340810   -0.091655
      4          6           0        0.000386   -1.254677    0.113246
      5          6           0        1.235463   -0.340088   -0.091666
      6          1           0        1.292844    1.931216    0.096699
      7          1           0       -1.294011    1.930437    0.096724
      8          1           0       -2.028416   -0.541879    0.632944
      9          1           0       -1.683200   -0.475571   -1.083364
     10          1           0        0.000618   -2.112968   -0.558683
     11          1           0        0.000488   -1.645537    1.132130
     12          1           0        2.028745   -0.540657    0.632941
     13          1           0        1.683491   -0.474581   -1.083354
 ---------------------------------------------------------------------
                    Distance matrix (angstroms):
                    1          2          3          4          5
     1  C    0.000000
     2  C    1.328995   0.000000
     3  C    2.358682   1.509887   0.000000
     4  C    2.400222   2.400226   1.550485   0.000000
     5  C    1.509896   2.358680   2.470741   1.550444   0.000000
     6  H    1.082994   2.147273   3.404258   3.438115   2.279824
     7  H    2.147282   1.082998   2.279802   3.438123   3.404265
     8  H    3.183279   2.177448   1.092951   2.212286   3.349431
     9  H    3.018698   2.153671   1.096486   2.207565   3.085517
    10  H    3.288513   3.288512   2.210452   1.090023   2.210441
    11  H    2.982303   2.982289   2.174185   1.091283   2.174175
    12  H    2.177454   3.183272   3.349451   2.212272   1.092968
    13  H    2.153666   3.018720   3.085542   2.207542   1.096477
                    6          7          8          9         10
     6  H    0.000000
     7  H    2.586855   0.000000
     8  H    4.175467   2.634242   0.000000
     9  H    4.005248   2.707942   1.751937   0.000000
    10  H    4.295904   4.295899   2.829360   2.406575   0.000000
    11  H    3.941505   3.941496   2.362986   3.018616   1.754235
    12  H    2.634247   4.175469   4.057161   4.090046   2.829386
    13  H    2.707949   4.005273   4.090044   3.366691   2.406585
                   11         12         13
    11  H    0.000000
    12  H    2.363001   0.000000
    13  H    3.018610   1.751922   0.000000
 Stoichiometry    C5H8
 Framework group  C1[X(C5H8)]
 Deg. of freedom    33
 Full point group                 C1      NOp   1
 Largest Abelian subgroup         C1      NOp   1
 Largest concise Abelian subgroup C1      NOp   1
                         Standard orientation:                         
 ---------------------------------------------------------------------
 Center     Atomic      Atomic             Coordinates (Angstroms)
 Number     Number       Type             X           Y           Z
 ---------------------------------------------------------------------
      1          6           0       -0.664326    1.075555   -0.041405
      2          6           0        0.664670    1.075340   -0.041428
      3          6           0        1.235326   -0.316356    0.090069
      4          6           0       -0.000210   -1.229690   -0.117956
      5          6           0       -1.235415   -0.315976    0.090065
      6          1           0       -1.293108    1.955949   -0.090553
      7          1           0        1.293747    1.955528   -0.090563
      8          1           0        2.028498   -0.514843   -0.635206
      9          1           0        1.683261   -0.454437    1.081315
     10          1           0       -0.000328   -2.090267    0.551042
     11          1           0       -0.000252   -1.617073   -1.138168
     12          1           0       -2.028664   -0.514182   -0.635227
     13          1           0       -1.683430   -0.453912    1.081285
 ---------------------------------------------------------------------
 Rotational constants (GHZ):           7.3076041           7.2399811           3.9310634
 Standard basis: def2TZVP (5D, 7F)
 There are   228 symmetry adapted cartesian basis functions of A   symmetry.
 There are   203 symmetry adapted basis functions of A   symmetry.
   203 basis functions,   319 primitive gaussians,   228 cartesian basis functions
    19 alpha electrons       19 beta electrons
       nuclear repulsion energy       171.2342230260 Hartrees.
 NAtoms=   13 NActive=   13 NUniq=   13 SFac= 1.00D+00 NAtFMM=   60 NAOKFM=F Big=F
 Integral buffers will be    131072 words long.
 Raffenetti 2 integral format.
 Two-electron integral symmetry is turned on.
 One-electron integrals computed using PRISM.
   1 Symmetry operations used in ECPInt.
 ECPInt:  NShTT=    3828 NPrTT=   11160 LenC2=    3820 LenP2D=    9632.
 LDataN:  DoStor=T MaxTD1= 6 Len=  172
 NBasis=   203 RedAO= T EigKep=  1.19D-04  NBF=   203
 NBsUse=   203 1.00D-06 EigRej= -1.00D+00 NBFU=   203
 Initial guess from the checkpoint file:  "/tmp/Gau-2849799.chk"
 B after Tr=    -0.000000    0.000000   -0.000000
         Rot=    1.000000   -0.000486    0.000002    0.000032 Ang=  -0.06 deg.
 ExpMin= 9.52D-02 ExpMax= 1.36D+04 ExpMxC= 4.63D+02 IAcc=3 IRadAn=         5 AccDes= 0.00D+00
 Harris functional with IExCor=  402 and IRadAn=       5 diagonalized for initial guess.
 HarFok:  IExCor=  402 AccDes= 0.00D+00 IRadAn=         5 IDoV= 1 UseB2=F ITyADJ=14
 ICtDFT=  3500011 ScaDFX=  1.000000  1.000000  1.000000  1.000000
 FoFCou: FMM=F IPFlag=           0 FMFlag=      100000 FMFlg1=           0
         NFxFlg=           0 DoJE=T BraDBF=F KetDBF=T FulRan=T
         wScrn=  0.000000 ICntrl=       500 IOpCl=  0 I1Cent=   200000004 NGrid=           0
         NMat0=    1 NMatS0=      1 NMatT0=    0 NMatD0=    1 NMtDS0=    0 NMtDT0=    0
 Petite list used in FoFCou.
 Requested convergence on RMS density matrix=1.00D-08 within 128 cycles.
 Requested convergence on MAX density matrix=1.00D-06.
 Requested convergence on             energy=1.00D-06.
 No special actions if energy rises.
 Integral accuracy reduced to 1.0D-05 until final iterations.
 Initial convergence to 1.0D-05 achieved.  Increase integral accuracy.
 SCF Done:  E(RB3LYP) =  -195.401919576     A.U. after    9 cycles
            NFock=  9  Conv=0.69D-08     -V/T= 2.0057
   1 Symmetry operations used in ECPInt.
 ECPInt:  NShTT=    3828 NPrTT=   11160 LenC2=    3820 LenP2D=    9632.
 LDataN:  DoStor=T MaxTD1= 7 Len=  274
 Calling FoFJK, ICntrl=      2127 FMM=F ISym2X=0 I1Cent= 0 IOpClX= 0 NMat=1 NMatS=1 NMatT=0.
 ***** Axes restored to original set *****
 -------------------------------------------------------------------
 Center     Atomic                   Forces (Hartrees/Bohr)
 Number     Number              X              Y              Z
 -------------------------------------------------------------------
      1        6           0.000748331   -0.001170682   -0.000195700
      2        6          -0.000751992   -0.001165569   -0.000202257
      3        6           0.000966924    0.000548593    0.000125933
      4        6          -0.000014847    0.000614888   -0.000248743
      5        6          -0.000946441    0.000560439    0.000134538
      6        1          -0.000818397    0.000432634    0.000070602
      7        1           0.000821142    0.000432700    0.000071967
      8        1          -0.000009247   -0.000275718   -0.000019162
      9        1          -0.000037097    0.000037428    0.000064983
     10        1           0.000001366   -0.000003083   -0.000016329
     11        1           0.000001195    0.000227233    0.000179923
     12        1           0.000001663   -0.000274453   -0.000024299
     13        1           0.000037401    0.000035590    0.000058543
 -------------------------------------------------------------------
 Cartesian Forces:  Max     0.001170682 RMS     0.000475880

 GradGradGradGradGradGradGradGradGradGradGradGradGradGradGradGradGradGrad
 Berny optimization.
 Using GEDIIS/GDIIS optimizer.
 FormGI is forming the generalized inverse of G from B-inverse, IUseBI=4.
 Internal  Forces:  Max     0.000987167 RMS     0.000302780
 Search for a local minimum.
 Step number   2 out of a maximum of   81
 All quantities printed in internal units (Hartrees-Bohrs-Radians)
 Mixed Optimization -- En-DIIS/RFO-DIIS
 Update second derivatives using D2CorX and points    1    2
 DE= -6.22D-04 DEPred=-6.36D-04 R= 9.79D-01
 TightC=F SS=  1.41D+00  RLast= 1.05D-01 DXNew= 5.0454D-01 3.1641D-01
 Trust test= 9.79D-01 RLast= 1.05D-01 DXMaxT set to 3.16D-01
 ITU=  1  0
 Use linear search instead of GDIIS.
     Eigenvalues ---    0.00386   0.01095   0.01404   0.01982   0.03397
     Eigenvalues ---    0.03439   0.04893   0.05183   0.05810   0.05865
     Eigenvalues ---    0.07122   0.07606   0.08252   0.08262   0.09603
     Eigenvalues ---    0.11151   0.14636   0.15979   0.21451   0.21659
     Eigenvalues ---    0.27798   0.28194   0.30864   0.34066   0.34354
     Eigenvalues ---    0.34566   0.34688   0.34732   0.34768   0.34996
     Eigenvalues ---    0.36412   0.36970   0.59385
 RFO step:  Lambda=-3.62103081D-05 EMin= 3.86279233D-03
 Quartic linear search produced a step of -0.00243.
 Iteration  1 RMS(Cart)=  0.00359924 RMS(Int)=  0.00000994
 Iteration  2 RMS(Cart)=  0.00000970 RMS(Int)=  0.00000115
 Iteration  3 RMS(Cart)=  0.00000000 RMS(Int)=  0.00000115
 Variable       Old X    -DE/DX   Delta X   Delta X   Delta X     New X
                                 (Linear)    (Quad)   (Total)
    R1        2.51144  -0.00054  -0.00004  -0.00042  -0.00045   2.51098
    R2        2.85329  -0.00087  -0.00005  -0.00210  -0.00214   2.85115
    R3        2.04656  -0.00012  -0.00003   0.00003   0.00000   2.04656
    R4        2.85327  -0.00087  -0.00005  -0.00208  -0.00213   2.85114
    R5        2.04657  -0.00012  -0.00003   0.00003  -0.00000   2.04657
    R6        2.92999  -0.00061  -0.00005  -0.00149  -0.00154   2.92845
    R7        2.06538   0.00004  -0.00001   0.00024   0.00023   2.06561
    R8        2.07206  -0.00005  -0.00001  -0.00000  -0.00001   2.07204
    R9        2.92991  -0.00060  -0.00005  -0.00143  -0.00149   2.92843
   R10        2.05984   0.00001  -0.00001   0.00012   0.00011   2.05996
   R11        2.06223   0.00009  -0.00000   0.00029   0.00029   2.06251
   R12        2.06541   0.00004  -0.00001   0.00020   0.00020   2.06561
   R13        2.07204  -0.00004  -0.00001   0.00002   0.00001   2.07205
    A1        1.95852   0.00009  -0.00000   0.00009   0.00008   1.95860
    A2        2.19042  -0.00099   0.00004  -0.00637  -0.00633   2.18409
    A3        2.13359   0.00089  -0.00003   0.00626   0.00623   2.13982
    A4        1.95853   0.00009  -0.00000   0.00008   0.00007   1.95861
    A5        2.19043  -0.00099   0.00004  -0.00638  -0.00634   2.18409
    A6        2.13356   0.00090  -0.00003   0.00628   0.00625   2.13981
    A7        1.80297  -0.00016   0.00001  -0.00113  -0.00112   1.80185
    A8        1.96479   0.00020  -0.00002   0.00232   0.00230   1.96709
    A9        1.92752   0.00004  -0.00002   0.00057   0.00054   1.92806
   A10        1.96307  -0.00010  -0.00001  -0.00165  -0.00166   1.96141
   A11        1.95265   0.00009  -0.00001   0.00105   0.00104   1.95369
   A12        1.85518  -0.00005   0.00005  -0.00102  -0.00098   1.85420
   A13        1.84388   0.00014  -0.00001   0.00043   0.00042   1.84430
   A14        1.96363  -0.00005  -0.00002   0.00087   0.00085   1.96448
   A15        1.91194  -0.00007   0.00000  -0.00159  -0.00159   1.91035
   A16        1.96367  -0.00005  -0.00002   0.00086   0.00084   1.96451
   A17        1.91198  -0.00008   0.00000  -0.00161  -0.00161   1.91037
   A18        1.86870   0.00010   0.00004   0.00087   0.00090   1.86960
   A19        1.80299  -0.00016   0.00001  -0.00114  -0.00114   1.80186
   A20        1.96477   0.00020  -0.00002   0.00233   0.00231   1.96708
   A21        1.92751   0.00004  -0.00002   0.00058   0.00056   1.92806
   A22        1.96308  -0.00010  -0.00001  -0.00166  -0.00166   1.96142
   A23        1.95268   0.00008  -0.00001   0.00103   0.00102   1.95370
   A24        1.85515  -0.00005   0.00005  -0.00101  -0.00096   1.85419
    D1       -0.00003   0.00000   0.00000   0.00004   0.00004   0.00001
    D2       -3.10315  -0.00010  -0.00003   0.00023   0.00020  -3.10295
    D3        3.10316   0.00010   0.00003  -0.00023  -0.00020   3.10296
    D4        0.00004  -0.00000   0.00000  -0.00004  -0.00004   0.00000
    D5       -0.19542   0.00002   0.00001  -0.00275  -0.00274  -0.19817
    D6       -2.31745   0.00014   0.00003  -0.00127  -0.00124  -2.31870
    D7        1.89527   0.00004  -0.00001  -0.00191  -0.00192   1.89335
    D8        2.98313  -0.00003  -0.00002  -0.00218  -0.00220   2.98093
    D9        0.86110   0.00009  -0.00001  -0.00070  -0.00070   0.86040
   D10       -1.20936  -0.00000  -0.00004  -0.00133  -0.00137  -1.21074
   D11        0.19547  -0.00002  -0.00001   0.00270   0.00268   0.19815
   D12        2.31748  -0.00013  -0.00003   0.00122   0.00120   2.31868
   D13       -1.89518  -0.00004   0.00001   0.00183   0.00184  -1.89335
   D14       -2.98315   0.00003   0.00002   0.00219   0.00221  -2.98094
   D15       -0.86114  -0.00009   0.00001   0.00072   0.00073  -0.86042
   D16        1.20938   0.00000   0.00004   0.00133   0.00137   1.21074
   D17       -0.30211   0.00001   0.00002  -0.00436  -0.00434  -0.30645
   D18       -2.45098   0.00001   0.00006  -0.00624  -0.00618  -2.45717
   D19        1.75589  -0.00004   0.00002  -0.00682  -0.00680   1.74909
   D20       -2.42528  -0.00008   0.00004  -0.00557  -0.00553  -2.43081
   D21        1.70904  -0.00008   0.00008  -0.00745  -0.00737   1.70166
   D22       -0.36728  -0.00013   0.00004  -0.00803  -0.00798  -0.37526
   D23        1.77120  -0.00000  -0.00001  -0.00383  -0.00384   1.76735
   D24       -0.37767  -0.00000   0.00003  -0.00572  -0.00569  -0.38336
   D25       -2.45399  -0.00005  -0.00001  -0.00629  -0.00630  -2.46029
   D26        0.30210  -0.00001  -0.00002   0.00438   0.00436   0.30645
   D27        2.42526   0.00008  -0.00004   0.00558   0.00554   2.43080
   D28       -1.77123   0.00000   0.00001   0.00386   0.00387  -1.76736
   D29        2.45094  -0.00001  -0.00006   0.00627   0.00621   2.45716
   D30       -1.70908   0.00008  -0.00008   0.00747   0.00739  -1.70168
   D31        0.37762   0.00000  -0.00003   0.00575   0.00572   0.38334
   D32       -1.75588   0.00004  -0.00002   0.00682   0.00680  -1.74908
   D33        0.36728   0.00012  -0.00004   0.00802   0.00798   0.37526
   D34        2.45398   0.00005   0.00001   0.00630   0.00631   2.46029
         Item               Value     Threshold  Converged?
 Maximum Force            0.000987     0.000450     NO 
 RMS     Force            0.000303     0.000300     NO 
 Maximum Displacement     0.012581     0.001800     NO 
 RMS     Displacement     0.003601     0.001200     NO 
 Predicted change in Energy=-1.813768D-05
 GradGradGradGradGradGradGradGradGradGradGradGradGradGradGradGradGradGrad

                          Input orientation:                          
 ---------------------------------------------------------------------
 Center     Atomic      Atomic             Coordinates (Angstroms)
 Number     Number       Type             X           Y           Z
 ---------------------------------------------------------------------
      1          6           0        0.664063    1.049274    0.045472
      2          6           0       -0.664692    1.048877    0.045471
      3          6           0       -1.234833   -0.341099   -0.093309
      4          6           0        0.000377   -1.253662    0.113969
      5          6           0        1.235028   -0.340366   -0.093317
      6          1           0        1.287133    1.933443    0.099369
      7          1           0       -1.288293    1.932675    0.099365
      8          1           0       -2.029174   -0.545406    0.629247
      9          1           0       -1.681241   -0.475119   -1.085792
     10          1           0        0.000619   -2.115135   -0.553970
     11          1           0        0.000489   -1.638880    1.135163
     12          1           0        2.029501   -0.544183    0.629232
     13          1           0        1.681523   -0.474118   -1.085800
 ---------------------------------------------------------------------
                    Distance matrix (angstroms):
                    1          2          3          4          5
     1  C    0.000000
     2  C    1.328755   0.000000
     3  C    2.357583   1.508759   0.000000
     4  C    2.397641   2.397644   1.549671   0.000000
     5  C    1.508762   2.357583   2.469861   1.549658   0.000000
     6  H    1.082995   2.143592   3.401614   3.437091   2.282554
     7  H    2.143594   1.082996   2.282549   3.437096   3.401616
     8  H    3.183916   2.178151   1.093072   2.210479   3.349501
     9  H    3.017280   2.153066   1.096478   2.207577   3.083470
    10  H    3.288308   3.288304   2.210374   1.090082   2.210378
    11  H    2.975555   2.975555   2.172417   1.091435   2.172415
    12  H    2.178142   3.183912   3.349505   2.210475   1.093071
    13  H    2.153073   3.017286   3.083483   2.207575   1.096481
                    6          7          8          9         10
     6  H    0.000000
     7  H    2.575426   0.000000
     8  H    4.174130   2.640183   0.000000
     9  H    4.002128   2.712283   1.751387   0.000000
    10  H    4.298017   4.298012   2.825617   2.408555   0.000000
    11  H    3.935710   3.935713   2.360332   3.019138   1.754990
    12  H    2.640169   4.174127   4.058675   4.088481   2.825635
    13  H    2.712290   4.002134   4.088489   3.362764   2.408571
                   11         12         13
    11  H    0.000000
    12  H    2.360342   0.000000
    13  H    3.019143   1.751380   0.000000
 Stoichiometry    C5H8
 Framework group  C1[X(C5H8)]
 Deg. of freedom    33
 Full point group                 C1      NOp   1
 Largest Abelian subgroup         C1      NOp   1
 Largest concise Abelian subgroup C1      NOp   1
                         Standard orientation:                         
 ---------------------------------------------------------------------
 Center     Atomic      Atomic             Coordinates (Angstroms)
 Number     Number       Type             X           Y           Z
 ---------------------------------------------------------------------
      1          6           0       -0.664349    1.074229   -0.041862
      2          6           0        0.664406    1.074194   -0.041858
      3          6           0        1.234924   -0.316163    0.091450
      4          6           0       -0.000037   -1.228239   -0.119423
      5          6           0       -1.234937   -0.316102    0.091452
      6          1           0       -1.287660    1.958434   -0.092280
      7          1           0        1.287766    1.958367   -0.092270
      8          1           0        2.029323   -0.517407   -0.631902
      9          1           0        1.681366   -0.453968    1.083399
     10          1           0       -0.000046   -2.092335    0.545119
     11          1           0       -0.000041   -1.609433   -1.142126
     12          1           0       -2.029352   -0.517289   -0.631896
     13          1           0       -1.681398   -0.453882    1.083399
 ---------------------------------------------------------------------
 Rotational constants (GHZ):           7.3162291           7.2453583           3.9360628
 Standard basis: def2TZVP (5D, 7F)
 There are   228 symmetry adapted cartesian basis functions of A   symmetry.
 There are   203 symmetry adapted basis functions of A   symmetry.
   203 basis functions,   319 primitive gaussians,   228 cartesian basis functions
    19 alpha electrons       19 beta electrons
       nuclear repulsion energy       171.3107311049 Hartrees.
 NAtoms=   13 NActive=   13 NUniq=   13 SFac= 1.00D+00 NAtFMM=   60 NAOKFM=F Big=F
 Integral buffers will be    131072 words long.
 Raffenetti 2 integral format.
 Two-electron integral symmetry is turned on.
 One-electron integrals computed using PRISM.
   1 Symmetry operations used in ECPInt.
 ECPInt:  NShTT=    3828 NPrTT=   11160 LenC2=    3820 LenP2D=    9632.
 LDataN:  DoStor=T MaxTD1= 6 Len=  172
 NBasis=   203 RedAO= T EigKep=  1.19D-04  NBF=   203
 NBsUse=   203 1.00D-06 EigRej= -1.00D+00 NBFU=   203
 Initial guess from the checkpoint file:  "/tmp/Gau-2849799.chk"
 B after Tr=     0.000000   -0.000000    0.000000
         Rot=    1.000000   -0.000147   -0.000000   -0.000067 Ang=  -0.02 deg.
 Requested convergence on RMS density matrix=1.00D-08 within 128 cycles.
 Requested convergence on MAX density matrix=1.00D-06.
 Requested convergence on             energy=1.00D-06.
 No special actions if energy rises.
 SCF Done:  E(RB3LYP) =  -195.401944567     A.U. after    7 cycles
            NFock=  7  Conv=0.45D-08     -V/T= 2.0056
   1 Symmetry operations used in ECPInt.
 ECPInt:  NShTT=    3828 NPrTT=   11160 LenC2=    3820 LenP2D=    9632.
 LDataN:  DoStor=T MaxTD1= 7 Len=  274
 Calling FoFJK, ICntrl=      2127 FMM=F ISym2X=0 I1Cent= 0 IOpClX= 0 NMat=1 NMatS=1 NMatT=0.
 ***** Axes restored to original set *****
 -------------------------------------------------------------------
 Center     Atomic                   Forces (Hartrees/Bohr)
 Number     Number              X              Y              Z
 -------------------------------------------------------------------
      1        6           0.000652414   -0.000433703   -0.000080689
      2        6          -0.000653592   -0.000431985   -0.000078912
      3        6           0.000309760    0.000245047    0.000149258
      4        6          -0.000004865    0.000163778   -0.000182855
      5        6          -0.000304165    0.000249068    0.000148673
      6        1          -0.000322793    0.000101418    0.000027487
      7        1           0.000323523    0.000101223    0.000027811
      8        1           0.000006158   -0.000077725   -0.000037038
      9        1           0.000033295    0.000019810   -0.000016500
     10        1           0.000001001    0.000000318    0.000028656
     11        1           0.000000465    0.000121739    0.000065945
     12        1          -0.000006130   -0.000079220   -0.000036146
     13        1          -0.000035071    0.000020231   -0.000015689
 -------------------------------------------------------------------
 Cartesian Forces:  Max     0.000653592 RMS     0.000222176

 GradGradGradGradGradGradGradGradGradGradGradGradGradGradGradGradGradGrad
 Berny optimization.
 Using GEDIIS/GDIIS optimizer.
 FormGI is forming the generalized inverse of G from B-inverse, IUseBI=4.
 Internal  Forces:  Max     0.000394447 RMS     0.000112442
 Search for a local minimum.
 Step number   3 out of a maximum of   81
 All quantities printed in internal units (Hartrees-Bohrs-Radians)
 Mixed Optimization -- En-DIIS/RFO-DIIS
 Swapping is turned off.
 Update second derivatives using D2CorX and points    1    2    3
 DE= -2.50D-05 DEPred=-1.81D-05 R= 1.38D+00
 TightC=F SS=  1.41D+00  RLast= 3.04D-02 DXNew= 5.3213D-01 9.1064D-02
 Trust test= 1.38D+00 RLast= 3.04D-02 DXMaxT set to 3.16D-01
 ITU=  1  1  0
     Eigenvalues ---    0.00336   0.01097   0.01396   0.01971   0.03387
     Eigenvalues ---    0.03400   0.04884   0.05158   0.05816   0.05930
     Eigenvalues ---    0.07121   0.07607   0.08176   0.08238   0.09509
     Eigenvalues ---    0.11148   0.11574   0.15979   0.21425   0.21651
     Eigenvalues ---    0.27792   0.28053   0.30857   0.32295   0.34354
     Eigenvalues ---    0.34406   0.34685   0.34709   0.34748   0.34987
     Eigenvalues ---    0.36412   0.36629   0.60144
 En-DIIS/RFO-DIIS/Sim-DIIS IScMMF=       -3 using points:     3    2
 RFO step:  Lambda=-1.06047207D-05.
 DidBck=F Rises=F RFO-DIIS coefs:    2.15915   -1.15915
 Iteration  1 RMS(Cart)=  0.00408200 RMS(Int)=  0.00000977
 Iteration  2 RMS(Cart)=  0.00000998 RMS(Int)=  0.00000326
 Iteration  3 RMS(Cart)=  0.00000000 RMS(Int)=  0.00000326
 Variable       Old X    -DE/DX   Delta X   Delta X   Delta X     New X
                                 (Linear)    (Quad)   (Total)
    R1        2.51098   0.00011  -0.00053   0.00111   0.00059   2.51157
    R2        2.85115  -0.00039  -0.00248   0.00078  -0.00171   2.84944
    R3        2.04656  -0.00010   0.00000  -0.00024  -0.00024   2.04632
    R4        2.85114  -0.00039  -0.00247   0.00077  -0.00170   2.84944
    R5        2.04657  -0.00010  -0.00000  -0.00024  -0.00025   2.04632
    R6        2.92845  -0.00019  -0.00178   0.00087  -0.00091   2.92754
    R7        2.06561  -0.00001   0.00026  -0.00026   0.00001   2.06562
    R8        2.07204  -0.00000  -0.00002   0.00009   0.00007   2.07212
    R9        2.92843  -0.00019  -0.00172   0.00084  -0.00089   2.92754
   R10        2.05996  -0.00002   0.00013  -0.00016  -0.00003   2.05993
   R11        2.06251   0.00002   0.00033  -0.00020   0.00013   2.06264
   R12        2.06561  -0.00001   0.00023  -0.00022   0.00001   2.06561
   R13        2.07205  -0.00000   0.00001   0.00006   0.00007   2.07212
    A1        1.95860   0.00000   0.00009  -0.00025  -0.00016   1.95844
    A2        2.18409  -0.00033  -0.00733   0.00342  -0.00391   2.18018
    A3        2.13982   0.00033   0.00722  -0.00320   0.00403   2.14385
    A4        1.95861   0.00000   0.00008  -0.00025  -0.00017   1.95844
    A5        2.18409  -0.00033  -0.00734   0.00343  -0.00391   2.18018
    A6        2.13981   0.00033   0.00725  -0.00321   0.00404   2.14385
    A7        1.80185  -0.00004  -0.00130   0.00029  -0.00101   1.80084
    A8        1.96709   0.00006   0.00267  -0.00112   0.00155   1.96864
    A9        1.92806   0.00001   0.00063  -0.00059   0.00005   1.92811
   A10        1.96141  -0.00002  -0.00192   0.00138  -0.00054   1.96087
   A11        1.95369  -0.00000   0.00120  -0.00097   0.00023   1.95392
   A12        1.85420  -0.00000  -0.00113   0.00089  -0.00024   1.85396
   A13        1.84430   0.00008   0.00049  -0.00054  -0.00007   1.84423
   A14        1.96448  -0.00002   0.00099  -0.00009   0.00090   1.96538
   A15        1.91035  -0.00004  -0.00184   0.00056  -0.00128   1.90908
   A16        1.96451  -0.00002   0.00097  -0.00010   0.00088   1.96538
   A17        1.91037  -0.00004  -0.00186   0.00057  -0.00129   1.90908
   A18        1.86960   0.00005   0.00105  -0.00034   0.00071   1.87031
   A19        1.80186  -0.00004  -0.00132   0.00031  -0.00102   1.80084
   A20        1.96708   0.00006   0.00267  -0.00110   0.00157   1.96865
   A21        1.92806   0.00001   0.00065  -0.00061   0.00004   1.92810
   A22        1.96142  -0.00002  -0.00193   0.00137  -0.00055   1.96087
   A23        1.95370  -0.00000   0.00118  -0.00096   0.00022   1.95392
   A24        1.85419  -0.00000  -0.00111   0.00089  -0.00022   1.85397
    D1        0.00001  -0.00000   0.00005  -0.00007  -0.00002  -0.00002
    D2       -3.10295  -0.00003   0.00023   0.00075   0.00097  -3.10198
    D3        3.10296   0.00003  -0.00023  -0.00078  -0.00100   3.10197
    D4        0.00000   0.00000  -0.00004   0.00004  -0.00000   0.00000
    D5       -0.19817   0.00001  -0.00318  -0.00069  -0.00387  -0.20203
    D6       -2.31870   0.00003  -0.00144  -0.00196  -0.00340  -2.32209
    D7        1.89335  -0.00001  -0.00222  -0.00194  -0.00417   1.88919
    D8        2.98093   0.00000  -0.00255  -0.00017  -0.00272   2.97821
    D9        0.86040   0.00002  -0.00081  -0.00144  -0.00225   0.85815
   D10       -1.21074  -0.00002  -0.00159  -0.00143  -0.00302  -1.21375
   D11        0.19815  -0.00001   0.00311   0.00080   0.00391   0.20206
   D12        2.31868  -0.00003   0.00139   0.00205   0.00344   2.32211
   D13       -1.89335   0.00001   0.00213   0.00205   0.00418  -1.88917
   D14       -2.98094  -0.00000   0.00257   0.00017   0.00274  -2.97820
   D15       -0.86042  -0.00002   0.00084   0.00143   0.00227  -0.85815
   D16        1.21074   0.00002   0.00158   0.00143   0.00301   1.21376
   D17       -0.30645   0.00001  -0.00503  -0.00111  -0.00614  -0.31259
   D18       -2.45717  -0.00000  -0.00717  -0.00057  -0.00773  -2.46490
   D19        1.74909  -0.00002  -0.00788  -0.00046  -0.00833   1.74076
   D20       -2.43081  -0.00003  -0.00641  -0.00068  -0.00708  -2.43789
   D21        1.70166  -0.00004  -0.00854  -0.00013  -0.00868   1.69299
   D22       -0.37526  -0.00005  -0.00925  -0.00002  -0.00928  -0.38454
   D23        1.76735  -0.00001  -0.00446  -0.00211  -0.00657   1.76078
   D24       -0.38336  -0.00002  -0.00659  -0.00156  -0.00816  -0.39152
   D25       -2.46029  -0.00004  -0.00730  -0.00145  -0.00876  -2.46905
   D26        0.30645  -0.00001   0.00505   0.00107   0.00613   0.31258
   D27        2.43080   0.00003   0.00642   0.00067   0.00709   2.43789
   D28       -1.76736   0.00001   0.00448   0.00209   0.00657  -1.76079
   D29        2.45716   0.00000   0.00720   0.00053   0.00773   2.46489
   D30       -1.70168   0.00004   0.00857   0.00013   0.00870  -1.69299
   D31        0.38334   0.00002   0.00663   0.00155   0.00818   0.39152
   D32       -1.74908   0.00002   0.00788   0.00043   0.00831  -1.74077
   D33        0.37526   0.00005   0.00925   0.00002   0.00927   0.38454
   D34        2.46029   0.00004   0.00731   0.00144   0.00876   2.46905
         Item               Value     Threshold  Converged?
 Maximum Force            0.000394     0.000450     YES
 RMS     Force            0.000112     0.000300     YES
 Maximum Displacement     0.013692     0.001800     NO 
 RMS     Displacement     0.004083     0.001200     NO 
 Predicted change in Energy=-5.303483D-06
 GradGradGradGradGradGradGradGradGradGradGradGradGradGradGradGradGradGrad

                          Input orientation:                          
 ---------------------------------------------------------------------
 Center     Atomic      Atomic             Coordinates (Angstroms)
 Number     Number       Type             X           Y           Z
 ---------------------------------------------------------------------
      1          6           0        0.664217    1.047910    0.047157
      2          6           0       -0.664848    1.047513    0.047170
      3          6           0       -1.234418   -0.341353   -0.095225
      4          6           0        0.000372   -1.252861    0.115557
      5          6           0        1.234619   -0.340616   -0.095225
      6          1           0        1.283748    1.934307    0.102665
      7          1           0       -1.284907    1.933540    0.102691
      8          1           0       -2.031257   -0.548077    0.623892
      9          1           0       -1.677054   -0.474251   -1.089589
     10          1           0        0.000629   -2.118061   -0.547523
     11          1           0        0.000487   -1.631634    1.139231
     12          1           0        2.031581   -0.546861    0.623890
     13          1           0        1.677331   -0.473256   -1.089591
 ---------------------------------------------------------------------
                    Distance matrix (angstroms):
                    1          2          3          4          5
     1  C    0.000000
     2  C    1.329065   0.000000
     3  C    2.356935   1.507858   0.000000
     4  C    2.395604   2.395603   1.549187   0.000000
     5  C    1.507858   2.356937   2.469037   1.549189   0.000000
     6  H    1.082866   2.141614   3.399846   3.435879   2.284042
     7  H    2.141613   1.082866   2.284045   3.435878   3.399848
     8  H    3.185181   2.178438   1.093077   2.209670   3.350540
     9  H    3.015082   2.152336   1.096517   2.207343   3.079684
    10  H    3.288977   3.288978   2.210567   1.090067   2.210569
    11  H    2.968690   2.968686   2.171105   1.091503   2.171104
    12  H    2.178440   3.185179   3.350539   2.209672   1.093075
    13  H    2.152334   3.015090   3.079683   2.207342   1.096518
                    6          7          8          9         10
     6  H    0.000000
     7  H    2.568655   0.000000
     8  H    4.174107   2.643315   0.000000
     9  H    3.998621   2.715285   1.751265   0.000000
    10  H    4.300096   4.300099   2.822344   2.410512   0.000000
    11  H    3.929016   3.929011   2.359588   3.020152   1.755491
    12  H    2.643317   4.174102   4.062839   4.085983   2.822347
    13  H    2.715279   3.998632   4.085982   3.354385   2.410509
                   11         12         13
    11  H    0.000000
    12  H    2.359587   0.000000
    13  H    3.020148   1.751265   0.000000
 Stoichiometry    C5H8
 Framework group  C1[X(C5H8)]
 Deg. of freedom    33
 Full point group                 C1      NOp   1
 Largest Abelian subgroup         C1      NOp   1
 Largest concise Abelian subgroup C1      NOp   1
                         Standard orientation:                         
 ---------------------------------------------------------------------
 Center     Atomic      Atomic             Coordinates (Angstroms)
 Number     Number       Type             X           Y           Z
 ---------------------------------------------------------------------
      1          6           0       -0.664523    1.073209   -0.042646
      2          6           0        0.664541    1.073198   -0.042656
      3          6           0        1.234515   -0.316148    0.093295
      4          6           0       -0.000009   -1.227027   -0.121718
      5          6           0       -1.234522   -0.316129    0.093289
      6          1           0       -1.284312    1.959674   -0.094042
      7          1           0        1.284343    1.959654   -0.094061
      8          1           0        2.031416   -0.519301   -0.626770
      9          1           0        1.677187   -0.453530    1.087034
     10          1           0       -0.000017   -2.095295    0.537339
     11          1           0       -0.000012   -1.601046   -1.147139
     12          1           0       -2.031422   -0.519266   -0.626778
     13          1           0       -1.677198   -0.453510    1.087027
 ---------------------------------------------------------------------
 Rotational constants (GHZ):           7.3231859           7.2479885           3.9402671
 Standard basis: def2TZVP (5D, 7F)
 There are   228 symmetry adapted cartesian basis functions of A   symmetry.
 There are   203 symmetry adapted basis functions of A   symmetry.
   203 basis functions,   319 primitive gaussians,   228 cartesian basis functions
    19 alpha electrons       19 beta electrons
       nuclear repulsion energy       171.3648764123 Hartrees.
 NAtoms=   13 NActive=   13 NUniq=   13 SFac= 1.00D+00 NAtFMM=   60 NAOKFM=F Big=F
 Integral buffers will be    131072 words long.
 Raffenetti 2 integral format.
 Two-electron integral symmetry is turned on.
 One-electron integrals computed using PRISM.
   1 Symmetry operations used in ECPInt.
 ECPInt:  NShTT=    3828 NPrTT=   11160 LenC2=    3820 LenP2D=    9632.
 LDataN:  DoStor=T MaxTD1= 6 Len=  172
 NBasis=   203 RedAO= T EigKep=  1.18D-04  NBF=   203
 NBsUse=   203 1.00D-06 EigRej= -1.00D+00 NBFU=   203
 Initial guess from the checkpoint file:  "/tmp/Gau-2849799.chk"
 B after Tr=    -0.000000   -0.000000    0.000000
         Rot=    1.000000   -0.000190    0.000000   -0.000009 Ang=  -0.02 deg.
 Requested convergence on RMS density matrix=1.00D-08 within 128 cycles.
 Requested convergence on MAX density matrix=1.00D-06.
 Requested convergence on             energy=1.00D-06.
 No special actions if energy rises.
 SCF Done:  E(RB3LYP) =  -195.401950410     A.U. after    7 cycles
            NFock=  7  Conv=0.43D-08     -V/T= 2.0056
   1 Symmetry operations used in ECPInt.
 ECPInt:  NShTT=    3828 NPrTT=   11160 LenC2=    3820 LenP2D=    9632.
 LDataN:  DoStor=T MaxTD1= 7 Len=  274
 Calling FoFJK, ICntrl=      2127 FMM=F ISym2X=0 I1Cent= 0 IOpClX= 0 NMat=1 NMatS=1 NMatT=0.
 ***** Axes restored to original set *****
 -------------------------------------------------------------------
 Center     Atomic                   Forces (Hartrees/Bohr)
 Number     Number              X              Y              Z
 -------------------------------------------------------------------
      1        6           0.000024261    0.000071192   -0.000030638
      2        6          -0.000023574    0.000071397   -0.000033152
      3        6          -0.000027388   -0.000023463    0.000122512
      4        6           0.000000710   -0.000056098   -0.000114147
      5        6           0.000025427   -0.000023537    0.000118526
      6        1           0.000027259   -0.000029284    0.000018461
      7        1          -0.000027295   -0.000029609    0.000018088
      8        1           0.000000056   -0.000003951   -0.000032020
      9        1           0.000046485    0.000002113   -0.000043901
     10        1           0.000000096   -0.000015881    0.000023307
     11        1          -0.000000310    0.000038906    0.000027449
     12        1           0.000000484   -0.000003775   -0.000031165
     13        1          -0.000046210    0.000001988   -0.000043321
 -------------------------------------------------------------------
 Cartesian Forces:  Max     0.000122512 RMS     0.000044771

 GradGradGradGradGradGradGradGradGradGradGradGradGradGradGradGradGradGrad
 Berny optimization.
 Using GEDIIS/GDIIS optimizer.
 FormGI is forming the generalized inverse of G from B-inverse, IUseBI=4.
 Internal  Forces:  Max     0.000054776 RMS     0.000020427
 Search for a local minimum.
 Step number   4 out of a maximum of   81
 All quantities printed in internal units (Hartrees-Bohrs-Radians)
 Mixed Optimization -- En-DIIS/RFO-DIIS
 Swapping is turned off.
 Update second derivatives using D2CorX and points    1    2    3    4
 DE= -5.84D-06 DEPred=-5.30D-06 R= 1.10D+00
 TightC=F SS=  1.41D+00  RLast= 3.67D-02 DXNew= 5.3213D-01 1.1014D-01
 Trust test= 1.10D+00 RLast= 3.67D-02 DXMaxT set to 3.16D-01
 ITU=  1  1  1  0
     Eigenvalues ---    0.00260   0.01098   0.01399   0.01963   0.03392
     Eigenvalues ---    0.03403   0.04822   0.05170   0.05820   0.05954
     Eigenvalues ---    0.07116   0.07606   0.08142   0.08227   0.09676
     Eigenvalues ---    0.11144   0.13510   0.15978   0.21615   0.21640
     Eigenvalues ---    0.27784   0.27981   0.30848   0.32822   0.34354
     Eigenvalues ---    0.34500   0.34685   0.34716   0.34750   0.34983
     Eigenvalues ---    0.36412   0.36528   0.60637
 En-DIIS/RFO-DIIS/Sim-DIIS IScMMF=       -3 using points:     4    3    2
 RFO step:  Lambda=-9.77660780D-07.
 DidBck=F Rises=F RFO-DIIS coefs:    2.03082   -1.47859    0.44777
 Iteration  1 RMS(Cart)=  0.00287016 RMS(Int)=  0.00000429
 Iteration  2 RMS(Cart)=  0.00000477 RMS(Int)=  0.00000118
 Iteration  3 RMS(Cart)=  0.00000000 RMS(Int)=  0.00000118
 Variable       Old X    -DE/DX   Delta X   Delta X   Delta X     New X
                                 (Linear)    (Quad)   (Total)
    R1        2.51157   0.00005   0.00081  -0.00061   0.00020   2.51177
    R2        2.84944   0.00004  -0.00080   0.00083   0.00003   2.84947
    R3        2.04632  -0.00001  -0.00025   0.00021  -0.00004   2.04628
    R4        2.84944   0.00004  -0.00080   0.00083   0.00003   2.84947
    R5        2.04632  -0.00001  -0.00025   0.00021  -0.00004   2.04628
    R6        2.92754  -0.00001  -0.00025  -0.00002  -0.00028   2.92726
    R7        2.06562  -0.00002  -0.00009   0.00001  -0.00009   2.06553
    R8        2.07212   0.00002   0.00008   0.00003   0.00011   2.07223
    R9        2.92754  -0.00001  -0.00025  -0.00002  -0.00027   2.92727
   R10        2.05993  -0.00000  -0.00008   0.00008  -0.00000   2.05993
   R11        2.06264   0.00001   0.00000   0.00008   0.00009   2.06273
   R12        2.06561  -0.00002  -0.00008  -0.00000  -0.00008   2.06553
   R13        2.07212   0.00002   0.00007   0.00004   0.00011   2.07223
    A1        1.95844  -0.00003  -0.00020  -0.00014  -0.00034   1.95810
    A2        2.18018   0.00005  -0.00120   0.00119  -0.00000   2.18018
    A3        2.14385  -0.00003   0.00136  -0.00103   0.00033   2.14418
    A4        1.95844  -0.00003  -0.00020  -0.00013  -0.00034   1.95810
    A5        2.18018   0.00005  -0.00119   0.00119  -0.00000   2.18018
    A6        2.14385  -0.00003   0.00136  -0.00103   0.00033   2.14418
    A7        1.80084   0.00004  -0.00054   0.00033  -0.00021   1.80063
    A8        1.96864  -0.00000   0.00057   0.00008   0.00065   1.96929
    A9        1.92811  -0.00002  -0.00020  -0.00016  -0.00035   1.92775
   A10        1.96087  -0.00000   0.00019   0.00001   0.00019   1.96107
   A11        1.95392  -0.00004  -0.00022  -0.00031  -0.00053   1.95340
   A12        1.85396   0.00002   0.00019   0.00003   0.00022   1.85419
   A13        1.84423  -0.00002  -0.00026  -0.00038  -0.00064   1.84359
   A14        1.96538   0.00001   0.00055   0.00005   0.00059   1.96598
   A15        1.90908  -0.00000  -0.00060   0.00012  -0.00048   1.90860
   A16        1.96538   0.00001   0.00053   0.00006   0.00059   1.96597
   A17        1.90908  -0.00000  -0.00061   0.00013  -0.00048   1.90860
   A18        1.87031   0.00000   0.00032   0.00003   0.00035   1.87066
   A19        1.80084   0.00004  -0.00054   0.00033  -0.00021   1.80063
   A20        1.96865  -0.00000   0.00059   0.00005   0.00064   1.96929
   A21        1.92810  -0.00002  -0.00021  -0.00013  -0.00034   1.92776
   A22        1.96087  -0.00000   0.00018   0.00001   0.00018   1.96106
   A23        1.95392  -0.00004  -0.00023  -0.00029  -0.00052   1.95340
   A24        1.85397   0.00002   0.00020   0.00002   0.00022   1.85419
    D1       -0.00002   0.00000  -0.00004   0.00009   0.00005   0.00003
    D2       -3.10198   0.00000   0.00091  -0.00069   0.00022  -3.10176
    D3        3.10197  -0.00000  -0.00094   0.00075  -0.00019   3.10178
    D4        0.00000   0.00000   0.00001  -0.00002  -0.00001  -0.00001
    D5       -0.20203   0.00001  -0.00276  -0.00007  -0.00283  -0.20487
    D6       -2.32209  -0.00001  -0.00294  -0.00032  -0.00326  -2.32535
    D7        1.88919  -0.00002  -0.00344  -0.00029  -0.00373   1.88546
    D8        2.97821   0.00000  -0.00182  -0.00078  -0.00260   2.97561
    D9        0.85815  -0.00002  -0.00200  -0.00102  -0.00303   0.85513
   D10       -1.21375  -0.00002  -0.00250  -0.00099  -0.00349  -1.21725
   D11        0.20206  -0.00001   0.00282  -0.00006   0.00276   0.20482
   D12        2.32211   0.00001   0.00301   0.00020   0.00321   2.32532
   D13       -1.88917   0.00002   0.00349   0.00019   0.00367  -1.88549
   D14       -2.97820  -0.00000   0.00183   0.00075   0.00258  -2.97562
   D15       -0.85815   0.00002   0.00201   0.00102   0.00303  -0.85512
   D16        1.21376   0.00002   0.00249   0.00100   0.00349   1.21725
   D17       -0.31259   0.00001  -0.00439   0.00007  -0.00431  -0.31690
   D18       -2.46490   0.00000  -0.00520   0.00023  -0.00497  -2.46987
   D19        1.74076  -0.00001  -0.00555   0.00009  -0.00546   1.73530
   D20       -2.43789  -0.00001  -0.00483  -0.00024  -0.00507  -2.44296
   D21        1.69299  -0.00002  -0.00564  -0.00008  -0.00572   1.68726
   D22       -0.38454  -0.00002  -0.00599  -0.00023  -0.00621  -0.39076
   D23        1.76078  -0.00001  -0.00505  -0.00007  -0.00512   1.75567
   D24       -0.39152  -0.00001  -0.00586   0.00009  -0.00577  -0.39730
   D25       -2.46905  -0.00002  -0.00621  -0.00005  -0.00626  -2.47531
   D26        0.31258  -0.00001   0.00437  -0.00003   0.00434   0.31692
   D27        2.43789   0.00001   0.00483   0.00024   0.00507   2.44296
   D28       -1.76079   0.00000   0.00505   0.00007   0.00512  -1.75567
[...]
 ! A12   A(8,3,9)              106.2527         -DE/DX =    0.0                 !
 ! A13   A(3,4,5)              105.5961         -DE/DX =    0.0                 !
 ! A14   A(3,4,10)             112.6732         -DE/DX =    0.0                 !
 ! A15   A(3,4,11)             109.3285         -DE/DX =    0.0                 !
 ! A16   A(5,4,10)             112.6732         -DE/DX =    0.0                 !
 ! A17   A(5,4,11)             109.3284         -DE/DX =    0.0                 !
 ! A18   A(10,4,11)            107.2012         -DE/DX =    0.0                 !
 ! A19   A(1,5,4)              103.1403         -DE/DX =    0.0                 !
 ! A20   A(1,5,12)             112.8651         -DE/DX =    0.0                 !
 ! A21   A(1,5,13)             110.4268         -DE/DX =    0.0                 !
 ! A22   A(4,5,12)             112.3895         -DE/DX =    0.0                 !
 ! A23   A(4,5,13)             111.8954         -DE/DX =    0.0                 !
 ! A24   A(12,5,13)            106.2527         -DE/DX =    0.0                 !
 ! D1    D(5,1,2,3)             -0.0014         -DE/DX =    0.0                 !
 ! D2    D(5,1,2,7)           -177.697          -DE/DX =    0.0                 !
 ! D3    D(6,1,2,3)            177.696          -DE/DX =    0.0                 !
 ! D4    D(6,1,2,7)              0.0004         -DE/DX =    0.0                 !
 ! D5    D(2,1,5,4)            -11.94           -DE/DX =    0.0                 !
 ! D6    D(2,1,5,12)          -133.4698         -DE/DX =    0.0                 !
 ! D7    D(2,1,5,13)           107.768          -DE/DX =    0.0                 !
 ! D8    D(6,1,5,4)            170.3065         -DE/DX =    0.0                 !
 ! D9    D(6,1,5,12)            48.7766         -DE/DX =    0.0                 !
 ! D10   D(6,1,5,13)           -69.9856         -DE/DX =    0.0                 !
 ! D11   D(1,2,3,4)             11.9421         -DE/DX =    0.0                 !
 ! D12   D(1,2,3,8)            133.4717         -DE/DX =    0.0                 !
 ! D13   D(1,2,3,9)           -107.7662         -DE/DX =    0.0                 !
 ! D14   D(7,2,3,4)           -170.3061         -DE/DX =    0.0                 !
 ! D15   D(7,2,3,8)            -48.7765         -DE/DX =    0.0                 !
 ! D16   D(7,2,3,9)             69.9856         -DE/DX =    0.0                 !
 ! D17   D(2,3,4,5)            -18.476          -DE/DX =    0.0                 !
 ! D18   D(2,3,4,10)          -141.8662         -DE/DX =    0.0                 !
 ! D19   D(2,3,4,11)            99.0446         -DE/DX =    0.0                 !
 ! D20   D(8,3,4,5)           -140.3264         -DE/DX =    0.0                 !
 ! D21   D(8,3,4,10)            96.2834         -DE/DX =    0.0                 !
 ! D22   D(8,3,4,11)           -22.8059         -DE/DX =    0.0                 !
 ! D23   D(9,3,4,5)            100.2151         -DE/DX =    0.0                 !
 ! D24   D(9,3,4,10)           -23.1751         -DE/DX =    0.0                 !
 ! D25   D(9,3,4,11)          -142.2644         -DE/DX =    0.0                 !
 ! D26   D(3,4,5,1)             18.4753         -DE/DX =    0.0                 !
 ! D27   D(3,4,5,12)           140.3262         -DE/DX =    0.0                 !
 ! D28   D(3,4,5,13)          -100.2154         -DE/DX =    0.0                 !
 ! D29   D(10,4,5,1)           141.8655         -DE/DX =    0.0                 !
 ! D30   D(10,4,5,12)          -96.2835         -DE/DX =    0.0                 !
 ! D31   D(10,4,5,13)           23.1749         -DE/DX =    0.0                 !
 ! D32   D(11,4,5,1)           -99.0454         -DE/DX =    0.0                 !
 ! D33   D(11,4,5,12)           22.8056         -DE/DX =    0.0                 !
 ! D34   D(11,4,5,13)          142.264          -DE/DX =    0.0                 !
 --------------------------------------------------------------------------------
 GradGradGradGradGradGradGradGradGradGradGradGradGradGradGradGradGradGrad


 ----------------------------------------------------------------------

 Electric dipole moment (input orientation):
 (Debye = 10**-18 statcoulomb cm , SI units = C m)
                  (au)            (Debye)         (10**-30 SI)
   Tot        0.861649D-01      0.219009D+00      0.730536D+00
   x          0.231561D-04      0.588569D-04      0.196326D-03
   y         -0.804348D-01     -0.204445D+00     -0.681955D+00
   z         -0.308971D-01     -0.785325D-01     -0.261956D+00

 Dipole polarizability, Alpha (input orientation).
 (esu units = cm**3 , SI units = C**2 m**2 J**-1)
 Alpha(0;0):
               (au)            (10**-24 esu)      (10**-40 SI)
   iso        0.565583D+02      0.838108D+01      0.932520D+01
   aniso      0.191910D+02      0.284381D+01      0.316417D+01
   xx         0.668356D+02      0.990401D+01      0.110197D+02
   yx         0.263778D-02      0.390878D-03      0.434911D-03
   yy         0.579816D+02      0.859198D+01      0.955987D+01
   zx        -0.362595D-03     -0.537310D-04     -0.597838D-04
   zy         0.699110D+00      0.103597D+00      0.115268D+00
   zz         0.448577D+02      0.664723D+01      0.739604D+01

 ----------------------------------------------------------------------

 Dipole orientation:
     6          1.25572108         -0.62222134         -1.88137043
     6         -1.25612981         -0.62145395         -1.88135567
     6         -2.33132199          0.05909850          0.66851671
     6          0.00032589          1.05832938          2.12864962
     6          2.33136257          0.05773650          0.66847323
     1          2.42767203         -1.11970897         -3.48329800
     1         -2.42840554         -1.11823706         -3.48326313
     1         -3.84628680          1.45822813          0.55319916
     1         -3.15354252         -1.61257960          1.57632453
     1          0.00017934          0.49095745          4.10888084
     1          0.00093111          3.12070759          2.08497209
     1          3.84714339          1.45598379          0.55312089
     1          3.15262232         -1.61441338          1.57627597

 Electric dipole moment (dipole orientation):
 (Debye = 10**-18 statcoulomb cm , SI units = C m)
                  (au)            (Debye)         (10**-30 SI)
   Tot        0.861649D-01      0.219009D+00      0.730536D+00
   x          0.000000D+00      0.000000D+00      0.000000D+00
   y          0.000000D+00      0.000000D+00      0.000000D+00
   z          0.861649D-01      0.219009D+00      0.730536D+00

 Dipole polarizability, Alpha (dipole orientation).
 (esu units = cm**3 , SI units = C**2 m**2 J**-1)
 Alpha(0;0):
               (au)            (10**-24 esu)      (10**-40 SI)
   iso        0.565583D+02      0.838108D+01      0.932520D+01
   aniso      0.191910D+02      0.284381D+01      0.316417D+01
   xx         0.668356D+02      0.990401D+01      0.110197D+02
   yx        -0.615853D-02     -0.912600D-03     -0.101540D-02
   yy         0.460772D+02      0.682793D+01      0.759710D+01
   zx         0.109012D-02      0.161538D-03      0.179736D-03
   zy         0.387368D+01      0.574021D+00      0.638684D+00
   zz         0.567621D+02      0.841128D+01      0.935881D+01

 ----------------------------------------------------------------------
 Unable to Open any file for archive entry.
 1\1\GINC-NODE10\Freq\RB3LYP\def2TZVP\C5H8\SVSS\06-Sep-2022\0\\#N Geom=
 AllCheck Guess=TCheck SCRF=Check GenChk RB3LYP/def2TZVP Freq\\Do3_cres
 t_conf_1\\0,1\C,0.6642921934,1.047562018,0.0498049788\C,-0.664922062,1
 .0471636647,0.0498240436\C,-1.2335931087,-0.3416799627,-0.097990569\C,
 0.0003717586,-1.2523445016,0.1188831138\C,1.2337933022,-0.3409444245,-
 0.0979920366\H,1.2842826935,1.9334063564,0.1081897378\H,-1.2854428951,
 1.9326353148,0.1082196294\H,-2.035431033,-0.550351425,0.6148265847\H,-
 1.6684009978,-0.4729993411,-1.0961524823\H,0.0006312589,-2.1228910934,
 -0.5371451186\H,0.0004842854,-1.6221103042,1.1459575769\H,2.0357568866
 ,-0.5491351228,0.6148268603\H,1.6686777181,-0.4720111784,-1.0961523189
 \\Version=AS64L-G16RevC.01\State=1-A\HF=-195.4019521\RMSD=3.057e-09\RM
 SF=2.130e-05\ZeroPoint=0.1164383\Thermal=0.1210903\ETot=-195.2808619\H
 Tot=-195.2799177\GTot=-195.3129082\Dipole=0.0000232,-0.0804348,-0.0308
 971\DipoleDeriv=0.031684,-0.0727102,-0.0237699,-0.0493615,0.0743922,0.
 0235216,-0.0666636,0.0340881,-0.2429408,0.0316119,0.072684,0.023751,0.
 0493336,0.0744637,0.02354,0.0666531,0.0341279,-0.2429415,0.0551273,0.0
 26581,-0.0135783,0.0122271,-0.0019733,-0.0142904,-0.0467317,-0.0183011
 ,0.2248903,-0.0112793,-0.0000377,-0.0000113,-0.0000372,0.1135862,0.037
 197,-0.0000047,0.0125098,0.1519584,0.0551459,-0.0265458,0.0135902,-0.0
 121923,-0.0019971,-0.0142793,0.0467377,-0.0182683,0.2248889,0.0100028,
 -0.0622637,-0.0017388,-0.0819438,-0.0945004,-0.0165546,0.0025202,-0.01
 38024,0.1532626,0.0099162,0.0623265,0.0017513,0.0820065,-0.094414,-0.0
 165561,-0.0025156,-0.0138035,0.1532628,-0.0988065,-0.0300178,0.0731667
 ,-0.0586966,0.0194033,0.0157577,0.1325498,0.03804,-0.0202153,-0.019371
 2,-0.006359,-0.0658842,-0.063714,0.0046697,-0.0148474,-0.1315543,-0.03
 5742,-0.1211705,0.0357015,0.000048,0.0000212,0.0000476,-0.1239806,-0.0
 712303,0.0000376,-0.1264535,-0.0083565,0.018538,0.000004,-0.0000146,0.
 000004,0.0061825,0.0468383,-0.0000313,0.1053098,-0.1312533,-0.0988573,
 0.0299455,-0.0731759,0.0586275,0.0194558,0.0157134,-0.132572,0.0379598
 ,-0.0202137,-0.0194131,0.0063451,0.0658926,0.0636991,0.0047121,-0.0148
 1,0.1315749,-0.0356647,-0.1211714\Polar=66.8356046,0.0026378,57.981582
 8,-0.0003626,0.6991103,44.8577242\Quadrupole=0.613364,0.1196593,-0.733
 0234,0.0001385,-0.0000282,0.0787045\PG=C01 [X(C5H8)]\NImag=0\\0.830005
 52,0.10552671,0.58463960,0.00301606,0.03625590,0.14561786,-0.53209516,
 0.00314068,0.00255647,0.83013239,-0.00339682,-0.10456331,-0.00152242,-
 0.10537894,0.58451457,-0.00254348,-0.00152409,-0.05566229,-0.00305211,
 0.03625760,0.14561802,-0.02679551,-0.03223890,-0.00589762,-0.09644511,
 -0.03085343,-0.00268336,0.54256151,-0.02250450,-0.01074289,-0.00378080
 ,-0.04252939,-0.17417758,-0.01006412,0.05117800,0.41322785,-0.00280474
 ,-0.00216881,0.00837062,-0.00353876,-0.00946630,-0.07240038,-0.0184148
 9,-0.00504247,0.55168150,0.00344359,-0.01214545,-0.00297358,0.00342384
 ,0.01216905,0.00297234,-0.12376717,0.04020161,-0.00791988,0.37902079,-
 0.02078299,-0.03606327,0.00238506,0.02080662,-0.03604377,0.00238660,0.
 03794318,-0.09976107,0.00964515,-0.00005382,0.55839159,-0.00251296,-0.
 00465370,0.00096354,0.00251592,-0.00465258,0.00096354,-0.01222932,0.00
 965902,-0.08123382,-0.00000803,0.02771616,0.58459295,-0.09648881,0.030
 89911,0.00268924,-0.02682798,0.03222913,0.00590001,-0.03462270,-0.0038
 2444,0.00398143,-0.12372058,-0.03795743,0.01222364,0.54262082,0.042575
 36,-0.17413274,-0.01006184,0.02249475,-0.01071006,-0.00377726,0.003799
 16,0.00768598,-0.00391163,-0.04021584,-0.09980763,0.00966629,-0.051099
 88,0.41316557,0.00354306,-0.00946267,-0.07240038,0.00280747,-0.0021678
 1,0.00837058,-0.00397903,-0.00391401,-0.00557634,0.00791409,0.00964992
 ,-0.08123384,0.01841535,-0.00502984,0.55168232,-0.14761138,-0.12803115
 ,-0.00773153,-0.01029019,-0.02815265,-0.00212563,-0.00439331,0.0008534
 7,0.00050703,-0.00160982,0.00322588,0.00055389,0.01027280,0.01044928,0
 .00007617,0.15222568,-0.13283186,-0.24494463,-0.01486033,0.00408755,0.
 00484346,0.00001904,0.00145119,-0.00012723,-0.00054960,0.00155915,-0.0
 0318664,-0.00144671,-0.01623959,-0.01111565,0.00012376,0.14364418,0.25
 439709,-0.00770111,-0.01448281,-0.03793675,0.00005136,-0.00042256,0.00
 462775,-0.00021288,-0.00067765,0.01153135,0.00011866,-0.00019029,0.001
 76337,-0.00202559,-0.00118305,0.00119045,0.00916489,0.01588313,0.02487
 290,-0.01030457,0.02814356,0.00212550,-0.14776796,0.12808973,0.0077425
 5,0.01026933,-0.01043654,-0.00007638,-0.00160695,-0.00322494,-0.000553
 03,-0.00439188,-0.00085607,-0.00050620,0.00098630,-0.00072836,-0.00000
 347,0.15239798,-0.00409670,0.00485794,0.00002043,0.13289039,-0.2447886
 0,-0.01485838,0.01625243,-0.01111230,0.00012362,-0.00155820,-0.0031895
 3,-0.00144711,-0.00145377,-0.00012862,-0.00054999,0.00072870,0.0004521
 1,0.00049223,-0.14370555,0.25422530,-0.00005061,-0.00042347,0.00462759
 ,0.00771134,-0.01448009,-0.03793692,0.00202634,-0.00118201,0.00119048,
 -0.00011854,-0.00019036,0.00176332,0.00021350,-0.00067735,0.01153144,0
 .00000305,0.00049223,-0.00566240,-0.00917663,0.01588045,0.02487317,0.0
 0015303,-0.00088964,0.00055624,-0.00844764,-0.00351454,0.00473110,-0.1
 7802945,-0.03294084,0.12251962,-0.01588242,-0.00494311,0.01301760,-0.0
 0240142,0.00203209,0.00073784,-0.00042967,-0.00015446,-0.00073125,0.00
 021405,-0.00044157,-0.00027421,0.19701023,-0.00102140,-0.00504083,-0.0
 0075137,-0.02381640,-0.00381746,0.02167270,-0.03456434,-0.05656973,0.0
 3217890,0.01523209,0.00413769,-0.01229346,0.00142324,-0.00303120,0.001
 09863,-0.00104752,0.00034944,-0.00209324,0.00095161,0.00053535,-0.0004
 3009,0.03877376,0.06029931,-0.00032951,-0.00007117,0.00037374,-0.00460
 452,-0.00082841,0.00446270,0.12497409,0.03218224,-0.15986472,-0.005992
 04,-0.00144181,0.00305594,-0.00203552,0.00047481,0.00063937,-0.0002526
 7,-0.00007415,-0.00032344,0.00039810,0.00058056,0.00011165,-0.13297795
 ,-0.03622343,0.17218754,0.00052543,-0.00152159,-0.00046889,-0.00697531
 ,-0.00510760,-0.01010379,-0.08216420,-0.00818995,-0.08494397,-0.007180
 20,-0.00182578,-0.02151298,-0.00108533,0.00001004,-0.00167883,-0.00029
 871,-0.00023922,0.00115656,0.00000647,-0.00027058,-0.00006074,0.009067
 32,0.00324809,0.02157032,0.09019883,0.00035423,-0.00367140,-0.00030663
 ,-0.01551197,-0.00449599,-0.02887399,-0.01114451,-0.04784512,-0.029316
 02,0.00715306,-0.00006081,0.01915783,0.00038743,-0.00031637,-0.0004626
 6,-0.00056787,-0.00003835,0.00250010,0.00059098,-0.00010448,0.00066989
 ,0.00252898,0.00138553,0.00581781,0.01273725,0.05481056,0.00159303,-0.
 00088000,0.00076218,-0.00228455,-0.00331384,0.00031079,-0.08491104,-0.
 02483417,-0.25340493,-0.00027931,0.00092255,-0.00251440,-0.00084966,0.
 00045630,-0.00029040,-0.00004247,-0.00006173,0.00003365,-0.00039752,-0
 .00062973,-0.00018416,-0.00722882,-0.00264846,-0.02250306,0.09556375,0
 .03020082,0.27548944,-0.00407741,-0.00189653,0.00023021,-0.00407985,0.
 00189541,-0.00023026,0.00064931,0.02026022,0.01549049,-0.04623349,0.00
 004897,0.00003770,0.00066067,-0.02025288,-0.01548463,0.00073942,-0.001
 02035,0.00019929,0.00073904,0.00102125,-0.00019936,-0.00124203,0.00098
 427,0.00021954,0.00165516,-0.00087541,-0.00000654,0.05075976,-0.002068
 37,-0.00214810,0.00005428,0.00206725,-0.00214575,0.00005413,-0.0010661
 2,-0.01159369,-0.00968933,0.00004897,-0.21044213,-0.12659346,0.0010734
 1,-0.01160513,-0.00969859,0.00037726,-0.00074578,0.00014216,-0.0003763
 7,-0.00074540,0.00014202,0.00064870,-0.00083530,0.00012310,-0.00041504
 ,0.00122293,0.00043468,-0.00005308,0.22877889,0.00085848,0.00151346,0.
 00033903,-0.00085937,0.00151293,0.00033905,-0.00064658,0.00634306,0.00
 300555,0.00003870,-0.12995577,-0.14848601,0.00064282,0.00634350,0.0030
 0556,-0.00016295,0.00038710,0.00015205,0.00016272,0.00038719,0.0001520
 6,-0.00010590,-0.00016094,0.00020678,0.00038320,0.00008031,0.00139050,
 -0.00004127,0.13842640,0.15761167,-0.00130333,0.00039529,0.00052073,-0
 .00130366,-0.00039613,-0.00052059,-0.00377826,0.00997460,-0.02574058,-
 0.04283423,0.00001074,-0.00002374,-0.00377166,-0.00997358,0.02573012,0
 .00018787,-0.00024024,-0.00035126,0.00018776,0.00024053,0.00035138,0.0
 0133495,-0.00075117,-0.00038563,-0.00301631,0.00406639,-0.00092167,0.0
 0001611,-0.00000295,0.00000740,0.05595933,-0.00107756,0.00009443,-0.00
 023385,0.00107670,0.00009486,-0.00023416,0.00105411,-0.00563435,0.0175
 5988,0.00001071,-0.07804197,0.07801826,-0.00105305,-0.00564097,0.01757
 530,0.00006313,-0.00031418,-0.00020803,-0.00006283,-0.00031406,-0.0002
 0782,-0.00043664,0.00145495,-0.00023650,0.00178322,-0.00167380,0.00041
 593,-0.00000297,0.00987202,-0.02479645,-0.00000738,0.08032470,0.000040
 30,0.00003545,0.00017131,-0.00004032,0.00003543,0.00017132,-0.00091029
 ,0.00037805,-0.00364826,-0.00002418,0.07958836,-0.28017609,0.00091011,
 0.00037864,-0.00364838,0.00001077,0.00013642,-0.00017642,-0.00001085,0
 .00013642,-0.00017641,-0.00031025,-0.00032615,0.00178843,-0.00065829,0
 .00087439,0.00129790,-0.00000182,0.00604694,-0.01931354,0.00002661,-0.
 08783278,0.30062379,-0.00846383,0.00351166,-0.00474393,0.00015199,0.00
 089265,-0.00055582,-0.00239934,-0.00203173,-0.00073849,-0.01587625,0.0
 0493099,-0.01301030,-0.17806823,0.03286734,-0.12253758,0.00021435,0.00
 044139,0.00027446,-0.00043035,0.00015399,0.00073252,-0.00054572,0.0003
 6931,-0.00007870,-0.00080128,0.00029195,0.00001276,-0.00124108,-0.0006
 4894,0.00010600,0.00133424,0.00043656,0.00031042,0.19705478,0.02381348
 ,-0.00380089,0.02166972,0.00102425,-0.00503956,-0.00075173,-0.00142282
 ,-0.00303328,0.00109825,-0.01524387,0.00413142,-0.01230117,0.03449106,
 -0.05652939,0.03210510,-0.00095179,0.00053503,-0.00042992,0.00104696,0
 .00035017,-0.00209284,-0.00036988,0.00041511,-0.00007912,-0.00021938,0
 .00071721,0.00005600,-0.00098453,-0.00083628,-0.00016087,0.00075105,0.
 00145566,-0.00032598,-0.03869084,0.06025267,0.00460495,-0.00082559,0.0
 0446252,0.00032952,-0.00007096,0.00037373,0.00203523,0.00047604,0.0006
 3935,0.00599295,-0.00143823,0.00305600,-0.12499194,0.03210676,-0.15986
 380,-0.00039844,0.00058032,0.00011166,0.00025270,-0.00007399,-0.000323
 46,0.00007875,-0.00007907,-0.00004386,0.00050563,-0.00022363,-0.000091
 07,-0.00021961,0.00012298,0.00020679,0.00038577,-0.00023627,0.00178844
 ,0.13299827,-0.03614311,0.17218675,-0.00698757,0.00510624,0.01012108,0
 .00052464,0.00152415,0.00046904,-0.00108512,-0.00001051,0.00167912,-0.
 00717712,0.00182168,0.02150160,-0.08217570,0.00817024,0.08496219,0.000
 00666,0.00027065,0.00006034,-0.00029924,0.00023908,-0.00115804,-0.0008
 0124,0.00021847,-0.00050550,0.00006813,-0.00001052,-0.00024797,0.00165
 438,0.00041529,-0.00038324,-0.00301280,-0.00178402,0.00065779,0.009070
 74,-0.00324371,-0.02157379,0.09021425,0.01551040,-0.00448392,-0.028868
 14,-0.00035149,-0.00367081,-0.00030635,-0.00038795,-0.00031658,-0.0004
 6164,-0.00715745,-0.00006389,0.01917063,0.01112478,-0.04783377,-0.0292
 6715,-0.00059092,-0.00010467,0.00066993,0.00056782,-0.00003788,0.00249
 945,-0.00029285,0.00071714,-0.00022393,0.00001053,0.00007008,-0.000118
 36,0.00087564,0.00122371,0.00008009,-0.00406715,-0.00167729,0.00087481
 ,-0.00252433,0.00138213,0.00580476,-0.01271704,0.05479576,0.00228653,-
 0.00331250,0.00031102,-0.00159246,-0.00088098,0.00076213,0.00084936,0.
 00045681,-0.00029040,0.00027882,0.00092266,-0.00251450,0.08492659,-0.0
 2478533,-0.25340658,0.00039790,-0.00062949,-0.00018417,0.00004251,-0.0
 0006170,0.00003364,-0.00001278,0.00005599,-0.00009107,0.00024804,-0.00
 011821,-0.00029644,0.00000626,0.00043469,0.00139052,0.00092145,0.00041
 649,0.00129789,0.00723038,-0.00264433,-0.02250304,-0.09558261,0.030145
 90,0.27549098\\0.00006760,-0.00002939,-0.00000450,-0.00006804,-0.00002
 969,-0.00000034,-0.00000192,0.00004973,0.00000121,-0.00000008,-0.00003
 466,0.00001055,0.00000211,0.00004922,0.00000312,-0.00001083,0.00000120
 ,-0.00000062,0.00001079,0.00000086,-0.00000052,0.00000338,-0.00000300,
 -0.00000004,0.00000252,-0.00000521,-0.00000529,-0.00000001,0.00001027,
 0.00000104,0.00000024,-0.00000070,-0.00000052,-0.00000244,-0.00000389,
 0.00000045,-0.00000332,-0.00000474,-0.00000455\\\@
 The archive entry for this job was punched.


 Boundary, n.  In political geography, an imaginary
 line between two nations, separating the imaginary
 rights of one from the imaginary rights of another.
                               -- Ambrose Bierce
 Job cpu time:       0 days  0 hours 14 minutes 46.3 seconds.
 Elapsed time:       0 days  0 hours  0 minutes 57.2 seconds.
 File lengths (MBytes):  RWF=     52 Int=      0 D2E=      0 Chk=      5 Scr=      1
 Normal termination of Gaussian 16 at Tue Sep  6 22:58:26 2022.
