Job Start Time: Tue Sep  6 22:57:23 MDT 2022
SLURM Job ID: 71227
SLURM Job Name: P2_crest_conf_1
 Entering Gaussian System, Link 0=/opt/apps/Gaussian/G16C/g16/g16
 Initial command:
 /opt/apps/Gaussian/G16C/g16/l1.exe "/tmp/Gau-3076371.inp" -scrdir="/tmp/"
 Entering Link 1 = /opt/apps/Gaussian/G16C/g16/l1.exe PID=   3076372.
  
 Copyright (c) 1988-2019, Gaussian, Inc.  All Rights Reserved.
  
 This is part of the Gaussian(R) 16 program.  It is based on
 the Gaussian(R) 09 system (copyright 2009, Gaussian, Inc.),
 the Gaussian(R) 03 system (copyright 2003, Gaussian, Inc.),
 the Gaussian(R) 98 system (copyright 1998, Gaussian, Inc.),
 the Gaussian(R) 94 system (copyright 1995, Gaussian, Inc.),
 the Gaussian 92(TM) system (copyright 1992, Gaussian, Inc.),
 the Gaussian 90(TM) system (copyright 1990, Gaussian, Inc.),
 the Gaussian 88(TM) system (copyright 1988, Gaussian, Inc.),
 the Gaussian 86(TM) system (copyright 1986, Carnegie Mellon
 University), and the Gaussian 82(TM) system (copyright 1983,
 Carnegie Mellon University). Gaussian is a federally registered
 trademark of Gaussian, Inc.
  
 This software contains proprietary and confidential information,
 including trade secrets, belonging to Gaussian, Inc.
  
 This software is provided under written license and may be
 used, copied, transmitted, or stored only in accord with that
 written license.
  
 The following legend is applicable only to US Government
 contracts under FAR:
  
                    RESTRICTED RIGHTS LEGEND
  
 Use, reproduction and disclosure by the US Government is
 subject to restrictions as set forth in subparagraphs (a)
 and (c) of the Commercial Computer Software - Restricted
 Rights clause in FAR 52.227-19.
  
 Gaussian, Inc.
 340 Quinnipiac St., Bldg. 40, Wallingford CT 06492
  
  
 ---------------------------------------------------------------
 Warning -- This program may not be used in any manner that
 competes with the business of Gaussian, Inc. or will provide
 assistance to any competitor of Gaussian, Inc.  The licensee
 of this program is prohibited from giving any competitor of
 Gaussian, Inc. access to this program.  By using this program,
 the user acknowledges that Gaussian, Inc. is engaged in the
 business of creating and licensing software in the field of
 computational chemistry and represents and warrants to the
 licensee that it is not a competitor of Gaussian, Inc. and that
 it will not use this program in any manner prohibited above.
 ---------------------------------------------------------------
  

 Cite this work as:
 Gaussian 16, Revision C.01,
 M. J. Frisch, G. W. Trucks, H. B. Schlegel, G. E. Scuseria, 
 M. A. Robb, J. R. Cheeseman, G. Scalmani, V. Barone, 
 G. A. Petersson, H. Nakatsuji, X. Li, M. Caricato, A. V. Marenich, 
 J. Bloino, B. G. Janesko, R. Gomperts, B. Mennucci, H. P. Hratchian, 
 J. V. Ortiz, A. F. Izmaylov, J. L. Sonnenberg, D. Williams-Young, 
 F. Ding, F. Lipparini, F. Egidi, J. Goings, B. Peng, A. Petrone, 
 T. Henderson, D. Ranasinghe, V. G. Zakrzewski, J. Gao, N. Rega, 
 G. Zheng, W. Liang, M. Hada, M. Ehara, K. Toyota, R. Fukuda, 
 J. Hasegawa, M. Ishida, T. Nakajima, Y. Honda, O. Kitao, H. Nakai, 
 T. Vreven, K. Throssell, J. A. Montgomery, Jr., J. E. Peralta, 
 F. Ogliaro, M. J. Bearpark, J. J. Heyd, E. N. Brothers, K. N. Kudin, 
 V. N. Staroverov, T. A. Keith, R. Kobayashi, J. Normand, 
 K. Raghavachari, A. P. Rendell, J. C. Burant, S. S. Iyengar, 
 J. Tomasi, M. Cossi, J. M. Millam, M. Klene, C. Adamo, R. Cammi, 
 J. W. Ochterski, R. L. Martin, K. Morokuma, O. Farkas, 
 J. B. Foresman, and D. J. Fox, Gaussian, Inc., Wallingford CT, 2019.
 
 ******************************************
 Gaussian 16:  AS64L-G16RevC.01  3-Jul-2019
                 6-Sep-2022 
 ******************************************
 %nprocshared=16
 Will use up to   16 processors via shared memory.
 %mem=72GB
 -------------------------
 # B3LYP/def2tzvp opt freq
 -------------------------
 1/18=20,19=15,26=3,38=1/1,3;
 2/9=110,12=2,17=6,18=5,40=1/2;
 3/5=44,7=101,11=2,25=1,30=1,71=1,74=-5/1,2,3;
 4//1;
 5/5=2,38=5/2;
 6/7=2,8=2,9=2,10=2,28=1/1;
 7//1,2,3,16;
 1/18=20,19=15,26=3/3(2);
 2/9=110/2;
 99//99;
 2/9=110/2;
 3/5=44,7=101,11=2,25=1,30=1,71=1,74=-5/1,2,3;
 4/5=5,16=3,69=1/1;
 5/5=2,38=5/2;
 7//1,2,3,16;
 1/18=20,19=15,26=3/3(-5);
 2/9=110/2;
 6/7=2,8=2,9=2,10=2,19=2,28=1/1;
 99/9=1/99;
 ---------------
 P2_crest_conf_1
 ---------------
 Symbolic Z-matrix:
 Charge =  0 Multiplicity = 1
 C                    -0.631    -0.7707    0.7306 
 C                    -0.6311    0.7709    0.7303 
 C                     0.7953    1.1207    0.2436 
 C                     0.9155    0.6631   -1.187 
 C                     0.9156   -0.6635   -1.1868 
 C                     0.7955   -1.1205    0.2441 
 C                     1.5822    0.0003    0.9436 
 C                    -1.7877    0.7688   -0.2843 
 C                    -1.7876   -0.769    -0.2841 
 H                    -0.8508   -1.2647    1.6766 
 H                    -0.8508    1.2651    1.6763 
 H                     1.1025    2.145     0.4426 
 H                     0.9527    1.3273   -2.0317 
 H                     0.953    -1.3281   -2.0311 
 H                     1.1029   -2.1447    0.4435 
 H                     2.6402    0.0004    0.6848 
 H                     1.4685    0.0005    2.027 
 H                    -1.548     1.2233   -1.2429 
 H                    -2.7054    1.2127    0.0968 
 H                    -2.7051   -1.213     0.097 
 H                    -1.5477   -1.2236   -1.2427 
 

 GradGradGradGradGradGradGradGradGradGradGradGradGradGradGradGradGradGrad
 Berny optimization.
 Initialization pass.
                           ----------------------------
                           !    Initial Parameters    !
                           ! (Angstroms and Degrees)  !
 --------------------------                            --------------------------
 ! Name  Definition              Value          Derivative Info.                !
 --------------------------------------------------------------------------------
 ! R1    R(1,2)                  1.5416         estimate D2E/DX2                !
 ! R2    R(1,6)                  1.5472         estimate D2E/DX2                !
 ! R3    R(1,9)                  1.5386         estimate D2E/DX2                !
 ! R4    R(1,10)                 1.0896         estimate D2E/DX2                !
 ! R5    R(2,3)                  1.5472         estimate D2E/DX2                !
 ! R6    R(2,8)                  1.5386         estimate D2E/DX2                !
 ! R7    R(2,11)                 1.0897         estimate D2E/DX2                !
 ! R8    R(3,4)                  1.5068         estimate D2E/DX2                !
 ! R9    R(3,7)                  1.5377         estimate D2E/DX2                !
 ! R10   R(3,12)                 1.0877         estimate D2E/DX2                !
 ! R11   R(4,5)                  1.3266         estimate D2E/DX2                !
 ! R12   R(4,13)                 1.0752         estimate D2E/DX2                !
 ! R13   R(5,6)                  1.5069         estimate D2E/DX2                !
 ! R14   R(5,14)                 1.0751         estimate D2E/DX2                !
 ! R15   R(6,7)                  1.5377         estimate D2E/DX2                !
 ! R16   R(6,15)                 1.0878         estimate D2E/DX2                !
 ! R17   R(7,16)                 1.0892         estimate D2E/DX2                !
 ! R18   R(7,17)                 1.0893         estimate D2E/DX2                !
 ! R19   R(8,9)                  1.5378         estimate D2E/DX2                !
 ! R20   R(8,18)                 1.0876         estimate D2E/DX2                !
 ! R21   R(8,19)                 1.0883         estimate D2E/DX2                !
 ! R22   R(9,20)                 1.0882         estimate D2E/DX2                !
 ! R23   R(9,21)                 1.0877         estimate D2E/DX2                !
 ! A1    A(2,1,6)              103.0663         estimate D2E/DX2                !
 ! A2    A(2,1,9)               89.9265         estimate D2E/DX2                !
 ! A3    A(2,1,10)             116.9702         estimate D2E/DX2                !
 ! A4    A(6,1,9)              119.0741         estimate D2E/DX2                !
 ! A5    A(6,1,10)             110.8836         estimate D2E/DX2                !
 ! A6    A(9,1,10)             114.9248         estimate D2E/DX2                !
 ! A7    A(1,2,3)              103.0667         estimate D2E/DX2                !
 ! A8    A(1,2,8)               89.9319         estimate D2E/DX2                !
 ! A9    A(1,2,11)             116.96           estimate D2E/DX2                !
 ! A10   A(3,2,8)              119.0725         estimate D2E/DX2                !
 ! A11   A(3,2,11)             110.881          estimate D2E/DX2                !
 ! A12   A(8,2,11)             114.9324         estimate D2E/DX2                !
 ! A13   A(2,3,4)              107.6704         estimate D2E/DX2                !
 ! A14   A(2,3,7)               99.4306         estimate D2E/DX2                !
 ! A15   A(2,3,12)             114.5647         estimate D2E/DX2                !
 ! A16   A(4,3,7)               99.794          estimate D2E/DX2                !
 ! A17   A(4,3,12)             115.9219         estimate D2E/DX2                !
 ! A18   A(7,3,12)             117.2789         estimate D2E/DX2                !
 ! A19   A(3,4,5)              107.6711         estimate D2E/DX2                !
 ! A20   A(3,4,13)             124.1281         estimate D2E/DX2                !
 ! A21   A(5,4,13)             128.16           estimate D2E/DX2                !
 ! A22   A(4,5,6)              107.6625         estimate D2E/DX2                !
 ! A23   A(4,5,14)             128.1727         estimate D2E/DX2                !
 ! A24   A(6,5,14)             124.1243         estimate D2E/DX2                !
 ! A25   A(1,6,5)              107.6673         estimate D2E/DX2                !
 ! A26   A(1,6,7)               99.4316         estimate D2E/DX2                !
 ! A27   A(1,6,15)             114.5681         estimate D2E/DX2                !
 ! A28   A(5,6,7)               99.7958         estimate D2E/DX2                !
 ! A29   A(5,6,15)             115.9184         estimate D2E/DX2                !
 ! A30   A(7,6,15)             117.2795         estimate D2E/DX2                !
 ! A31   A(3,7,6)               93.5654         estimate D2E/DX2                !
 ! A32   A(3,7,16)             112.8831         estimate D2E/DX2                !
 ! A33   A(3,7,17)             113.5278         estimate D2E/DX2                !
 ! A34   A(6,7,16)             112.889          estimate D2E/DX2                !
 ! A35   A(6,7,17)             113.5258         estimate D2E/DX2                !
 ! A36   A(16,7,17)            109.7365         estimate D2E/DX2                !
 ! A37   A(2,8,9)               90.0705         estimate D2E/DX2                !
 ! A38   A(2,8,18)             114.5176         estimate D2E/DX2                !
 ! A39   A(2,8,19)             113.729          estimate D2E/DX2                !
 ! A40   A(9,8,18)             114.7072         estimate D2E/DX2                !
 ! A41   A(9,8,19)             114.0719         estimate D2E/DX2                !
 ! A42   A(18,8,19)            108.9062         estimate D2E/DX2                !
 ! A43   A(1,9,8)               90.071          estimate D2E/DX2                !
 ! A44   A(1,9,20)             113.7274         estimate D2E/DX2                !
 ! A45   A(1,9,21)             114.5161         estimate D2E/DX2                !
 ! A46   A(8,9,20)             114.0795         estimate D2E/DX2                !
 ! A47   A(8,9,21)             114.6983         estimate D2E/DX2                !
 ! A48   A(20,9,21)            108.9093         estimate D2E/DX2                !
 ! D1    D(6,1,2,3)              0.003          estimate D2E/DX2                !
 ! D2    D(6,1,2,8)            119.9075         estimate D2E/DX2                !
 ! D3    D(6,1,2,11)          -121.9059         estimate D2E/DX2                !
 ! D4    D(9,1,2,3)           -119.9018         estimate D2E/DX2                !
 ! D5    D(9,1,2,8)              0.0028         estimate D2E/DX2                !
 ! D6    D(9,1,2,11)           118.1894         estimate D2E/DX2                !
 ! D7    D(10,1,2,3)           121.9209         estimate D2E/DX2                !
 ! D8    D(10,1,2,8)          -118.1746         estimate D2E/DX2                !
 ! D9    D(10,1,2,11)            0.012          estimate D2E/DX2                !
 ! D10   D(2,1,6,5)            -66.3681         estimate D2E/DX2                !
 ! D11   D(2,1,6,7)             37.1597         estimate D2E/DX2                !
 ! D12   D(2,1,6,15)           163.0901         estimate D2E/DX2                !
 ! D13   D(9,1,6,5)             30.9591         estimate D2E/DX2                !
 ! D14   D(9,1,6,7)            134.4869         estimate D2E/DX2                !
 ! D15   D(9,1,6,15)           -99.5827         estimate D2E/DX2                !
 ! D16   D(10,1,6,5)           167.697          estimate D2E/DX2                !
 ! D17   D(10,1,6,7)           -88.7753         estimate D2E/DX2                !
 ! D18   D(10,1,6,15)           37.1551         estimate D2E/DX2                !
 ! D19   D(2,1,9,8)             -0.0028         estimate D2E/DX2                !
 ! D20   D(2,1,9,20)          -116.5043         estimate D2E/DX2                !
 ! D21   D(2,1,9,21)           117.372          estimate D2E/DX2                !
 ! D22   D(6,1,9,8)           -104.9519         estimate D2E/DX2                !
 ! D23   D(6,1,9,20)           138.5465         estimate D2E/DX2                !
 ! D24   D(6,1,9,21)            12.4228         estimate D2E/DX2                !
 ! D25   D(10,1,9,8)           119.9648         estimate D2E/DX2                !
 ! D26   D(10,1,9,20)            3.4632         estimate D2E/DX2                !
 ! D27   D(10,1,9,21)         -122.6605         estimate D2E/DX2                !
 ! D28   D(1,2,3,4)             66.3628         estimate D2E/DX2                !
 ! D29   D(1,2,3,7)            -37.1635         estimate D2E/DX2                !
 ! D30   D(1,2,3,12)          -163.0907         estimate D2E/DX2                !
 ! D31   D(8,2,3,4)            -30.9706         estimate D2E/DX2                !
 ! D32   D(8,2,3,7)           -134.4968         estimate D2E/DX2                !
 ! D33   D(8,2,3,12)            99.576          estimate D2E/DX2                !
 ! D34   D(11,2,3,4)          -167.7157         estimate D2E/DX2                !
 ! D35   D(11,2,3,7)            88.758          estimate D2E/DX2                !
 ! D36   D(11,2,3,12)          -37.1692         estimate D2E/DX2                !
 ! D37   D(1,2,8,9)             -0.0028         estimate D2E/DX2                !
 ! D38   D(1,2,8,18)          -117.3876         estimate D2E/DX2                !
 ! D39   D(1,2,8,19)           116.4904         estimate D2E/DX2                !
 ! D40   D(3,2,8,9)            104.9497         estimate D2E/DX2                !
 ! D41   D(3,2,8,18)           -12.4352         estimate D2E/DX2                !
 ! D42   D(3,2,8,19)          -138.5572         estimate D2E/DX2                !
 ! D43   D(11,2,8,9)          -119.9638         estimate D2E/DX2                !
 ! D44   D(11,2,8,18)          122.6513         estimate D2E/DX2                !
 ! D45   D(11,2,8,19)           -3.4707         estimate D2E/DX2                !
 ! D46   D(2,3,4,5)            -69.4822         estimate D2E/DX2                !
 ! D47   D(2,3,4,13)           108.3561         estimate D2E/DX2                !
 ! D48   D(7,3,4,5)             33.7856         estimate D2E/DX2                !
 ! D49   D(7,3,4,13)          -148.3761         estimate D2E/DX2                !
 ! D50   D(12,3,4,5)           160.7294         estimate D2E/DX2                !
 ! D51   D(12,3,4,13)          -21.4323         estimate D2E/DX2                !
 ! D52   D(2,3,7,6)             59.2398         estimate D2E/DX2                !
 ! D53   D(2,3,7,16)           175.9379         estimate D2E/DX2                !
 ! D54   D(2,3,7,17)           -58.3622         estimate D2E/DX2                !
 ! D55   D(4,3,7,6)            -50.6933         estimate D2E/DX2                !
 ! D56   D(4,3,7,16)            66.0048         estimate D2E/DX2                !
 ! D57   D(4,3,7,17)          -168.2953         estimate D2E/DX2                !
 ! D58   D(12,3,7,6)          -176.7182         estimate D2E/DX2                !
 ! D59   D(12,3,7,16)          -60.0202         estimate D2E/DX2                !
 ! D60   D(12,3,7,17)           65.6798         estimate D2E/DX2                !
 ! D61   D(3,4,5,6)             -0.0018         estimate D2E/DX2                !
 ! D62   D(3,4,5,14)           177.7315         estimate D2E/DX2                !
 ! D63   D(13,4,5,6)          -177.726          estimate D2E/DX2                !
 ! D64   D(13,4,5,14)            0.0074         estimate D2E/DX2                !
 ! D65   D(4,5,6,1)             69.4849         estimate D2E/DX2                !
 ! D66   D(4,5,6,7)            -33.7838         estimate D2E/DX2                !
 ! D67   D(4,5,6,15)          -160.7277         estimate D2E/DX2                !
 ! D68   D(14,5,6,1)          -108.3626         estimate D2E/DX2                !
 ! D69   D(14,5,6,7)           148.3687         estimate D2E/DX2                !
 ! D70   D(14,5,6,15)           21.4249         estimate D2E/DX2                !
 ! D71   D(1,6,7,3)            -59.2377         estimate D2E/DX2                !
 ! D72   D(1,6,7,16)          -175.9308         estimate D2E/DX2                !
 ! D73   D(1,6,7,17)            58.366          estimate D2E/DX2                !
 ! D74   D(5,6,7,3)             50.6929         estimate D2E/DX2                !
 ! D75   D(5,6,7,16)           -66.0003         estimate D2E/DX2                !
 ! D76   D(5,6,7,17)           168.2966         estimate D2E/DX2                !
 ! D77   D(15,6,7,3)           176.7151         estimate D2E/DX2                !
 ! D78   D(15,6,7,16)           60.022          estimate D2E/DX2                !
 ! D79   D(15,6,7,17)          -65.6812         estimate D2E/DX2                !
 ! D80   D(2,8,9,1)              0.0028         estimate D2E/DX2                !
 ! D81   D(2,8,9,20)           116.1892         estimate D2E/DX2                !
 ! D82   D(2,8,9,21)          -117.2103         estimate D2E/DX2                !
 ! D83   D(18,8,9,1)           117.2193         estimate D2E/DX2                !
 ! D84   D(18,8,9,20)         -126.5943         estimate D2E/DX2                !
 ! D85   D(18,8,9,21)            0.0063         estimate D2E/DX2                !
 ! D86   D(19,8,9,1)          -116.1834         estimate D2E/DX2                !
 ! D87   D(19,8,9,20)            0.003          estimate D2E/DX2                !
 ! D88   D(19,8,9,21)          126.6035         estimate D2E/DX2                !
 --------------------------------------------------------------------------------
 Trust Radius=3.00D-01 FncErr=1.00D-07 GrdErr=1.00D-06 EigMax=2.50D+02 EigMin=1.00D-04
 Number of steps in this run=    126 maximum allowed number of steps=    126.
 GradGradGradGradGradGradGradGradGradGradGradGradGradGradGradGradGradGrad

                          Input orientation:                          
 ---------------------------------------------------------------------
 Center     Atomic      Atomic             Coordinates (Angstroms)
 Number     Number       Type             X           Y           Z
 ---------------------------------------------------------------------
      1          6           0       -0.631000   -0.770700    0.730600
      2          6           0       -0.631100    0.770900    0.730300
      3          6           0        0.795300    1.120700    0.243600
      4          6           0        0.915500    0.663100   -1.187000
      5          6           0        0.915600   -0.663500   -1.186800
      6          6           0        0.795500   -1.120500    0.244100
      7          6           0        1.582200    0.000300    0.943600
      8          6           0       -1.787700    0.768800   -0.284300
      9          6           0       -1.787600   -0.769000   -0.284100
     10          1           0       -0.850800   -1.264700    1.676600
     11          1           0       -0.850800    1.265100    1.676300
     12          1           0        1.102500    2.145000    0.442600
     13          1           0        0.952700    1.327300   -2.031700
     14          1           0        0.953000   -1.328100   -2.031100
     15          1           0        1.102900   -2.144700    0.443500
     16          1           0        2.640200    0.000400    0.684800
     17          1           0        1.468500    0.000500    2.027000
     18          1           0       -1.548000    1.223300   -1.242900
     19          1           0       -2.705400    1.212700    0.096800
     20          1           0       -2.705100   -1.213000    0.097000
     21          1           0       -1.547700   -1.223600   -1.242700
 ---------------------------------------------------------------------
                    Distance matrix (angstroms):
                    1          2          3          4          5
     1  C    0.000000
     2  C    1.541600   0.000000
     3  C    2.418449   1.547208   0.000000
     4  C    2.850374   2.465691   1.506805   0.000000
     5  C    2.465743   2.850449   2.289953   1.326600   0.000000
     6  C    1.547238   2.418465   2.241200   2.289907   1.506900
     7  C    2.353309   2.353299   1.537696   2.328787   2.328860
     8  C    2.176703   1.538552   2.659775   2.851899   3.189643
     9  C    1.538617   2.176647   3.243579   3.189497   2.851892
    10  H    1.089616   2.255531   3.233151   3.877684   3.417700
    11  H    2.255469   1.089687   2.187036   3.417705   3.877758
    12  H    3.404302   2.230760   1.087733   2.210564   3.252314
    13  H    3.813137   3.232127   2.290076   1.075204   2.162988
    14  H    3.232141   3.813201   3.346005   2.163051   1.075144
    15  H    2.230854   3.404370   3.285942   3.252290   2.210636
    16  H    3.361167   3.361122   2.203040   2.630094   2.630189
    17  H    2.585208   2.585202   2.211009   3.327859   3.327928
    18  H    2.951547   2.222361   2.776916   2.527010   3.103625
    19  H    2.939169   2.213420   3.504984   3.880866   4.275441
    20  H    2.213361   2.939116   4.209566   4.275179   3.880665
    21  H    2.222469   2.951426   3.632421   3.103239   2.526793
                    6          7          8          9         10
     6  C    0.000000
     7  C    1.537657   0.000000
     8  C    3.243699   3.668045   0.000000
     9  C    2.659878   3.668054   1.537800   0.000000
    10  H    2.187042   2.838486   2.976245   2.228824   0.000000
    11  H    3.233046   2.838319   2.228912   2.976294   2.529800
    12  H    3.285900   2.254074   3.282616   4.167993   4.118761
    13  H    3.345998   3.318073   3.297745   3.867535   4.870582
    14  H    2.290074   3.318038   3.867782   3.297801   4.123682
    15  H    1.087769   2.254075   4.168182   3.282825   2.472222
    16  H    2.203078   1.089193   4.597379   4.597408   3.843335
    17  H    2.210951   1.089350   4.066354   4.066387   2.665082
    18  H    3.632707   4.009322   1.087631   2.223953   3.898681
    19  H    4.209729   4.535471   1.088328   2.216884   3.474596
    20  H    3.504910   4.535391   2.216877   1.088200   2.436440
    21  H    2.777011   4.009253   2.223913   1.087716   3.001611
                   11         12         13         14         15
    11  H    0.000000
    12  H    2.472169   0.000000
    13  H    4.123802   2.610217   0.000000
    14  H    4.870646   4.266611   2.655400   0.000000
    15  H    4.118674   4.289700   4.266610   2.610163   0.000000
    16  H    3.843126   2.649998   3.462325   3.462321   2.650089
    17  H    2.664837   2.691312   4.301104   4.301057   2.691286
    18  H    3.001594   3.273468   2.624218   3.658675   4.605935
    19  H    2.436618   3.935589   4.233833   4.936346   5.088761
    20  H    3.474708   5.088558   4.935989   4.233645   3.935606
    21  H    3.898700   4.605569   3.658089   2.624118   3.273740
                   16         17         18         19         20
    16  H    0.000000
    17  H    1.781679   0.000000
    18  H    4.769961   4.613757   0.000000
    19  H    5.512790   4.755685   1.770447   0.000000
    20  H    5.512720   4.755672   3.011606   2.425700   0.000000
    21  H    4.769899   4.613764   2.446900   3.011659   1.770447
                   21
    21  H    0.000000
 Stoichiometry    C9H12
 Framework group  C1[X(C9H12)]
 Deg. of freedom    57
 Full point group                 C1      NOp   1
 Largest Abelian subgroup         C1      NOp   1
 Largest concise Abelian subgroup C1      NOp   1
                         Standard orientation:                         
 ---------------------------------------------------------------------
 Center     Atomic      Atomic             Coordinates (Angstroms)
 Number     Number       Type             X           Y           Z
 ---------------------------------------------------------------------
      1          6           0       -0.601140    0.770698   -0.738504
      2          6           0       -0.601228   -0.770902   -0.738192
      3          6           0        0.814978   -1.120680   -0.222565
      4          6           0        0.906037   -0.663066    1.210181
      5          6           0        0.906125    0.663534    1.209970
      6          6           0        0.815161    1.120520   -0.223081
      7          6           0        1.615945   -0.000277   -0.906418
      8          6           0       -1.778233   -0.768807    0.252663
      9          6           0       -1.778148    0.768993    0.252451
     10          1           0       -0.801651    1.264687   -1.688785
     11          1           0       -0.801627   -1.265113   -1.688462
     12          1           0        1.126176   -2.144978   -0.415263
     13          1           0        0.926050   -1.327258    2.055469
     14          1           0        0.926330    1.328142    2.054850
     15          1           0        1.126542    2.144722   -0.416195
     16          1           0        2.668460   -0.000362   -0.626143
     17          1           0        1.524314   -0.000488   -1.991908
     18          1           0       -1.558083   -1.223295    1.215947
     19          1           0       -2.687983   -1.212722   -0.147027
     20          1           0       -2.687709    1.212978   -0.147244
     21          1           0       -1.557809    1.223605    1.215730
 ---------------------------------------------------------------------
 Rotational constants (GHZ):           2.9050212           1.8794036           1.8225450
 Standard basis: def2TZVP (5D, 7F)
 There are   396 symmetry adapted cartesian basis functions of A   symmetry.
 There are   351 symmetry adapted basis functions of A   symmetry.
   351 basis functions,   555 primitive gaussians,   396 cartesian basis functions
    33 alpha electrons       33 beta electrons
       nuclear repulsion energy       469.6241936566 Hartrees.
 NAtoms=   21 NActive=   21 NUniq=   21 SFac= 1.00D+00 NAtFMM=   60 NAOKFM=F Big=F
 Integral buffers will be    131072 words long.
 Raffenetti 2 integral format.
 Two-electron integral symmetry is turned on.
 One-electron integrals computed using PRISM.
   1 Symmetry operations used in ECPInt.
 ECPInt:  NShTT=   10878 NPrTT=   32112 LenC2=   10794 LenP2D=   26263.
 LDataN:  DoStor=T MaxTD1= 6 Len=  172
 NBasis=   351 RedAO= T EigKep=  1.28D-05  NBF=   351
 NBsUse=   351 1.00D-06 EigRej= -1.00D+00 NBFU=   351
 ExpMin= 9.52D-02 ExpMax= 1.36D+04 ExpMxC= 4.63D+02 IAcc=3 IRadAn=         5 AccDes= 0.00D+00
 Harris functional with IExCor=  402 and IRadAn=       5 diagonalized for initial guess.
 HarFok:  IExCor=  402 AccDes= 0.00D+00 IRadAn=         5 IDoV= 1 UseB2=F ITyADJ=14
 ICtDFT=  3500011 ScaDFX=  1.000000  1.000000  1.000000  1.000000
 FoFCou: FMM=F IPFlag=           0 FMFlag=      100000 FMFlg1=           0
         NFxFlg=           0 DoJE=T BraDBF=F KetDBF=T FulRan=T
         wScrn=  0.000000 ICntrl=       500 IOpCl=  0 I1Cent=   200000004 NGrid=           0
         NMat0=    1 NMatS0=      1 NMatT0=    0 NMatD0=    1 NMtDS0=    0 NMtDT0=    0
 Petite list used in FoFCou.
 Requested convergence on RMS density matrix=1.00D-08 within 128 cycles.
 Requested convergence on MAX density matrix=1.00D-06.
 Requested convergence on             energy=1.00D-06.
 No special actions if energy rises.
 Integral accuracy reduced to 1.0D-05 until final iterations.
 Initial convergence to 1.0D-05 achieved.  Increase integral accuracy.
 SCF Done:  E(RB3LYP) =  -350.232952852     A.U. after   14 cycles
            NFock= 14  Conv=0.19D-08     -V/T= 2.0046

 **********************************************************************

            Population analysis using the SCF Density.

 **********************************************************************

 Orbital symmetries:
       Occupied  (A) (A) (A) (A) (A) (A) (A) (A) (A) (A) (A) (A)
                 (A) (A) (A) (A) (A) (A) (A) (A) (A) (A) (A) (A)
                 (A) (A) (A) (A) (A) (A) (A) (A) (A)
       Virtual   (A) (A) (A) (A) (A) (A) (A) (A) (A) (A) (A) (A)
                 (A) (A) (A) (A) (A) (A) (A) (A) (A) (A) (A) (A)
                 (A) (A) (A) (A) (A) (A) (A) (A) (A) (A) (A) (A)
                 (A) (A) (A) (A) (A) (A) (A) (A) (A) (A) (A) (A)
                 (A) (A) (A) (A) (A) (A) (A) (A) (A) (A) (A) (A)
                 (A) (A) (A) (A) (A) (A) (A) (A) (A) (A) (A) (A)
                 (A) (A) (A) (A) (A) (A) (A) (A) (A) (A) (A) (A)
                 (A) (A) (A) (A) (A) (A) (A) (A) (A) (A) (A) (A)
                 (A) (A) (A) (A) (A) (A) (A) (A) (A) (A) (A) (A)
                 (A) (A) (A) (A) (A) (A) (A) (A) (A) (A) (A) (A)
                 (A) (A) (A) (A) (A) (A) (A) (A) (A) (A) (A) (A)
                 (A) (A) (A) (A) (A) (A) (A) (A) (A) (A) (A) (A)
                 (A) (A) (A) (A) (A) (A) (A) (A) (A) (A) (A) (A)
                 (A) (A) (A) (A) (A) (A) (A) (A) (A) (A) (A) (A)
                 (A) (A) (A) (A) (A) (A) (A) (A) (A) (A) (A) (A)
                 (A) (A) (A) (A) (A) (A) (A) (A) (A) (A) (A) (A)
                 (A) (A) (A) (A) (A) (A) (A) (A) (A) (A) (A) (A)
                 (A) (A) (A) (A) (A) (A) (A) (A) (A) (A) (A) (A)
                 (A) (A) (A) (A) (A) (A) (A) (A) (A) (A) (A) (A)
                 (A) (A) (A) (A) (A) (A) (A) (A) (A) (A) (A) (A)
                 (A) (A) (A) (A) (A) (A) (A) (A) (A) (A) (A) (A)
                 (A) (A) (A) (A) (A) (A) (A) (A) (A) (A) (A) (A)
                 (A) (A) (A) (A) (A) (A) (A) (A) (A) (A) (A) (A)
                 (A) (A) (A) (A) (A) (A) (A) (A) (A) (A) (A) (A)
                 (A) (A) (A) (A) (A) (A) (A) (A) (A) (A) (A) (A)
                 (A) (A) (A) (A) (A) (A) (A) (A) (A) (A) (A) (A)
                 (A) (A) (A) (A) (A) (A)
 The electronic state is 1-A.
 Alpha  occ. eigenvalues --  -10.17125 -10.17123 -10.16331 -10.16325 -10.16311
 Alpha  occ. eigenvalues --  -10.16097 -10.16003 -10.15532 -10.15512  -0.89951
 Alpha  occ. eigenvalues --   -0.80995  -0.72293  -0.72290  -0.64639  -0.62609
 Alpha  occ. eigenvalues --   -0.56134  -0.55177  -0.52476  -0.48542  -0.48292
 Alpha  occ. eigenvalues --   -0.47411  -0.42180  -0.39578  -0.39248  -0.37595
 Alpha  occ. eigenvalues --   -0.35238  -0.34461  -0.33929  -0.32672  -0.30251
 Alpha  occ. eigenvalues --   -0.28734  -0.28712  -0.24374
 Alpha virt. eigenvalues --    0.00548   0.03393   0.05504   0.06300   0.06403
 Alpha virt. eigenvalues --    0.08871   0.09448   0.09583   0.09711   0.11064
 Alpha virt. eigenvalues --    0.11475   0.13335   0.13965   0.13974   0.15963
 Alpha virt. eigenvalues --    0.16659   0.16667   0.17230   0.18372   0.20300
 Alpha virt. eigenvalues --    0.21965   0.22294   0.22470   0.23926   0.24257
 Alpha virt. eigenvalues --    0.24637   0.26299   0.28915   0.29766   0.32347
 Alpha virt. eigenvalues --    0.32504   0.33850   0.34696   0.34746   0.35907
 Alpha virt. eigenvalues --    0.36362   0.38368   0.39425   0.39490   0.40891
 Alpha virt. eigenvalues --    0.41075   0.41351   0.42169   0.43039   0.43825
 Alpha virt. eigenvalues --    0.44014   0.44806   0.45305   0.45721   0.46008
 Alpha virt. eigenvalues --    0.46383   0.47085   0.47450   0.49509   0.49808
 Alpha virt. eigenvalues --    0.50103   0.51451   0.52495   0.53471   0.55942
 Alpha virt. eigenvalues --    0.56627   0.58499   0.60315   0.60917   0.64270
 Alpha virt. eigenvalues --    0.65431   0.66539   0.70331   0.72320   0.74182
 Alpha virt. eigenvalues --    0.78854   0.79960   0.82672   0.84184   0.84927
 Alpha virt. eigenvalues --    0.87056   0.88261   0.88606   0.90191   0.90922
 Alpha virt. eigenvalues --    0.93797   0.94835   0.97581   0.98628   0.99808
 Alpha virt. eigenvalues --    1.00383   1.01514   1.05021   1.05252   1.07349
 Alpha virt. eigenvalues --    1.09088   1.09771   1.10680   1.12399   1.12855
 Alpha virt. eigenvalues --    1.14608   1.15743   1.17180   1.17910   1.18679
 Alpha virt. eigenvalues --    1.20559   1.21857   1.22521   1.25020   1.25746
 Alpha virt. eigenvalues --    1.26405   1.26665   1.28771   1.29414   1.35257
 Alpha virt. eigenvalues --    1.37076   1.38012   1.40754   1.40834   1.44876
 Alpha virt. eigenvalues --    1.46640   1.50978   1.52601   1.53857   1.54454
 Alpha virt. eigenvalues --    1.55206   1.58825   1.59757   1.62194   1.63149
 Alpha virt. eigenvalues --    1.63801   1.66083   1.68257   1.70301   1.72675
 Alpha virt. eigenvalues --    1.73924   1.74339   1.76363   1.78442   1.79000
 Alpha virt. eigenvalues --    1.80073   1.84492   1.86340   1.87338   1.87853
 Alpha virt. eigenvalues --    1.93741   1.95560   1.97856   1.97971   2.00291
 Alpha virt. eigenvalues --    2.00876   2.01579   2.02250   2.04409   2.07581
 Alpha virt. eigenvalues --    2.12342   2.14148   2.16431   2.16922   2.18888
 Alpha virt. eigenvalues --    2.20467   2.22413   2.24306   2.24582   2.28488
 Alpha virt. eigenvalues --    2.33766   2.34310   2.37097   2.39180   2.39563
 Alpha virt. eigenvalues --    2.40194   2.41962   2.42710   2.42927   2.48358
 Alpha virt. eigenvalues --    2.49037   2.50604   2.52037   2.54152   2.55393
 Alpha virt. eigenvalues --    2.58347   2.60064   2.61505   2.64013   2.64061
 Alpha virt. eigenvalues --    2.65297   2.65695   2.67584   2.67885   2.69543
 Alpha virt. eigenvalues --    2.71454   2.72470   2.73494   2.76040   2.77934
 Alpha virt. eigenvalues --    2.79364   2.80793   2.81062   2.83814   2.83976
 Alpha virt. eigenvalues --    2.85517   2.87106   2.88771   2.90396   2.91026
 Alpha virt. eigenvalues --    2.92260   2.94625   2.94756   2.95898   2.97044
 Alpha virt. eigenvalues --    2.99808   3.00023   3.01174   3.01270   3.02754
 Alpha virt. eigenvalues --    3.04231   3.05616   3.06406   3.07585   3.11534
 Alpha virt. eigenvalues --    3.14219   3.14980   3.17831   3.18915   3.20982
 Alpha virt. eigenvalues --    3.22827   3.25277   3.26637   3.26959   3.29662
 Alpha virt. eigenvalues --    3.29901   3.30357   3.33768   3.35269   3.36838
 Alpha virt. eigenvalues --    3.38348   3.40216   3.41446   3.44059   3.45215
 Alpha virt. eigenvalues --    3.47307   3.47892   3.50377   3.52919   3.54225
 Alpha virt. eigenvalues --    3.54544   3.59700   3.60325   3.60515   3.63112
 Alpha virt. eigenvalues --    3.65700   3.65722   3.68958   3.70396   3.70921
 Alpha virt. eigenvalues --    3.72634   3.77850   3.78304   3.79312   3.80372
 Alpha virt. eigenvalues --    3.82977   3.87408   3.88185   3.90559   3.90574
 Alpha virt. eigenvalues --    3.98557   3.99175   4.03074   4.03269   4.04207
 Alpha virt. eigenvalues --    4.08680   4.10748   4.11775   4.12510   4.13367
 Alpha virt. eigenvalues --    4.15568   4.18205   4.19453   4.20568   4.23387
 Alpha virt. eigenvalues --    4.24071   4.29689   4.29699   4.33521   4.34628
 Alpha virt. eigenvalues --    4.35489   4.39038   4.42260   4.42608   4.45355
 Alpha virt. eigenvalues --    4.45710   4.49345   4.52841   4.53779   4.55655
 Alpha virt. eigenvalues --    4.58545   4.60941   4.65955   4.69321   4.71080
 Alpha virt. eigenvalues --    4.80318   4.80612   4.85865   4.91740   4.97266
 Alpha virt. eigenvalues --    4.97391   5.00892   5.02352   5.05767   5.11257
 Alpha virt. eigenvalues --    5.13381   5.17703   5.25615   5.38365  22.31954
 Alpha virt. eigenvalues --   22.41981  22.49825  22.58613  22.61015  22.72487
 Alpha virt. eigenvalues --   22.76255  22.85470  22.92630
          Condensed to atoms (all electrons):
               1          2          3          4          5          6
     1  C    5.011089   0.368135  -0.029299  -0.041818   0.020515   0.291378
     2  C    0.368135   5.011009   0.291468   0.020449  -0.041825  -0.029291
     3  C   -0.029299   0.291468   4.950539   0.268277  -0.048330  -0.071518
     4  C   -0.041818   0.020449   0.268277   5.157155   0.580581  -0.048335
     5  C    0.020515  -0.041825  -0.048330   0.580581   5.157222   0.268255
     6  C    0.291378  -0.029291  -0.071518  -0.048335   0.268255   4.950610
     7  C   -0.073033  -0.073107   0.334729  -0.051522  -0.051532   0.334722
     8  C   -0.149149   0.354665  -0.015148  -0.030977  -0.020536   0.015653
     9  C    0.354626  -0.149185   0.015677  -0.020595  -0.031050  -0.015087
    10  H    0.386890  -0.029439  -0.000134   0.003424   0.005996  -0.047464
    11  H   -0.029467   0.386865  -0.047452   0.005999   0.003420  -0.000125
    12  H    0.011238  -0.048393   0.424285  -0.056058   0.012000   0.007838
    13  H   -0.001561   0.003587  -0.057327   0.434706  -0.046037   0.009800
    14  H    0.003593  -0.001564   0.009800  -0.046019   0.434713  -0.057320
    15  H   -0.048388   0.011236   0.007841   0.011999  -0.056055   0.424270
    16  H    0.008439   0.008444  -0.018471  -0.001396  -0.001402  -0.018455
    17  H    0.000839   0.000847  -0.039422   0.009400   0.009407  -0.039434
    18  H   -0.005341   0.007778  -0.025405   0.016850   0.000317   0.000878
    19  H    0.013334  -0.033838   0.008724   0.000168   0.001130  -0.002081
    20  H   -0.033869   0.013336  -0.002081   0.001130   0.000167   0.008724
    21  H    0.007802  -0.005339   0.000876   0.000319   0.016861  -0.025414
               7          8          9         10         11         12
     1  C   -0.073033  -0.149149   0.354626   0.386890  -0.029467   0.011238
     2  C   -0.073107   0.354665  -0.149185  -0.029439   0.386865  -0.048393
     3  C    0.334729  -0.015148   0.015677  -0.000134  -0.047452   0.424285
     4  C   -0.051522  -0.030977  -0.020595   0.003424   0.005999  -0.056058
     5  C   -0.051532  -0.020536  -0.031050   0.005996   0.003420   0.012000
     6  C    0.334722   0.015653  -0.015087  -0.047464  -0.000125   0.007838
     7  C    5.019264   0.012352   0.012325   0.002958   0.002952  -0.040545
     8  C    0.012352   4.931815   0.386519   0.015683  -0.045252  -0.001291
     9  C    0.012325   0.386519   4.931942  -0.045275   0.015691  -0.001264
    10  H    0.002958   0.015683  -0.045275   0.670380  -0.014270  -0.000562
    11  H    0.002952  -0.045252   0.015691  -0.014270   0.670401  -0.003838
    12  H   -0.040545  -0.001291  -0.001264  -0.000562  -0.003838   0.626422
    13  H    0.008850   0.000559  -0.001002   0.000156  -0.000518  -0.003262
    14  H    0.008843  -0.000998   0.000555  -0.000518   0.000156  -0.000234
    15  H   -0.040550  -0.001263  -0.001289  -0.003838  -0.000562  -0.000284
    16  H    0.376881  -0.000361  -0.000360  -0.000411  -0.000410  -0.001935
    17  H    0.400331   0.000543   0.000544   0.000557   0.000558  -0.002641
    18  H    0.000884   0.334989  -0.005071  -0.001717   0.007770   0.002253
    19  H   -0.000895   0.389157  -0.031816   0.000302  -0.014372  -0.000004
    20  H   -0.000895  -0.031816   0.389208  -0.014369   0.000301   0.000080
    21  H    0.000885  -0.005076   0.334937   0.007772  -0.001718   0.000047
              13         14         15         16         17         18
     1  C   -0.001561   0.003593  -0.048388   0.008439   0.000839  -0.005341
     2  C    0.003587  -0.001564   0.011236   0.008444   0.000847   0.007778
     3  C   -0.057327   0.009800   0.007841  -0.018471  -0.039422  -0.025405
     4  C    0.434706  -0.046019   0.011999  -0.001396   0.009400   0.016850
     5  C   -0.046037   0.434713  -0.056055  -0.001402   0.009407   0.000317
     6  C    0.009800  -0.057320   0.424270  -0.018455  -0.039434   0.000878
     7  C    0.008850   0.008843  -0.040550   0.376881   0.400331   0.000884
     8  C    0.000559  -0.000998  -0.001263  -0.000361   0.000543   0.334989
     9  C   -0.001002   0.000555  -0.001289  -0.000360   0.000544  -0.005071
    10  H    0.000156  -0.000518  -0.003838  -0.000411   0.000557  -0.001717
    11  H   -0.000518   0.000156  -0.000562  -0.000410   0.000558   0.007770
    12  H   -0.003262  -0.000234  -0.000284  -0.001935  -0.002641   0.002253
    13  H    0.555647  -0.007328  -0.000235  -0.000071  -0.000286  -0.001914
    14  H   -0.007328   0.555592  -0.003260  -0.000071  -0.000286   0.000319
    15  H   -0.000235  -0.003260   0.626436  -0.001935  -0.002642   0.000047
    16  H   -0.000071  -0.000071  -0.001935   0.595967  -0.029361  -0.000063
    17  H   -0.000286  -0.000286  -0.002642  -0.029361   0.611446  -0.000057
    18  H   -0.001914   0.000319   0.000047  -0.000063  -0.000057   0.649709
    19  H    0.000042   0.000004   0.000080   0.000016  -0.000061  -0.034080
    20  H    0.000004   0.000042  -0.000004   0.000016  -0.000061   0.006873
    21  H    0.000320  -0.001914   0.002251  -0.000063  -0.000057  -0.016114
              19         20         21
     1  C    0.013334  -0.033869   0.007802
     2  C   -0.033838   0.013336  -0.005339
     3  C    0.008724  -0.002081   0.000876
     4  C    0.000168   0.001130   0.000319
     5  C    0.001130   0.000167   0.016861
     6  C   -0.002081   0.008724  -0.025414
     7  C   -0.000895  -0.000895   0.000885
     8  C    0.389157  -0.031816  -0.005076
     9  C   -0.031816   0.389208   0.334937
    10  H    0.000302  -0.014369   0.007772
    11  H   -0.014372   0.000301  -0.001718
    12  H   -0.000004   0.000080   0.000047
    13  H    0.000042   0.000004   0.000320
    14  H    0.000004   0.000042  -0.001914
    15  H    0.000080  -0.000004   0.002251
    16  H    0.000016   0.000016  -0.000063
    17  H   -0.000061  -0.000061  -0.000057
    18  H   -0.034080   0.006873  -0.016114
    19  H    0.633667  -0.016215   0.006875
    20  H   -0.016215   0.633620  -0.034078
    21  H    0.006875  -0.034078   0.649741
 Mulliken charges:
               1
     1  C   -0.065952
     2  C   -0.065837
     3  C    0.042371
     4  C   -0.213736
     5  C   -0.213818
     6  C    0.042396
     7  C   -0.183898
     8  C   -0.140069
     9  C   -0.140029
    10  H    0.063880
    11  H    0.063871
    12  H    0.076147
    13  H    0.105870
    14  H    0.105893
    15  H    0.076144
    16  H    0.085002
    17  H    0.079834
    18  H    0.061096
    19  H    0.079863
    20  H    0.079887
    21  H    0.061086
 Sum of Mulliken charges =  -0.00000
 Mulliken charges with hydrogens summed into heavy atoms:
               1
     1  C   -0.002072
     2  C   -0.001967
     3  C    0.118518
     4  C   -0.107865
     5  C   -0.107926
     6  C    0.118540
     7  C   -0.019062
     8  C    0.000890
     9  C    0.000944
 Electronic spatial extent (au):  <R**2>=            905.1614
 Charge=             -0.0000 electrons
 Dipole moment (field-independent basis, Debye):
    X=             -0.0510    Y=              0.0000    Z=             -0.2773  Tot=              0.2820
 Quadrupole moment (field-independent basis, Debye-Ang):
   XX=            -57.5041   YY=            -54.5943   ZZ=            -54.6633
   XY=              0.0000   XZ=              0.3287   YZ=             -0.0001
 Traceless Quadrupole moment (field-independent basis, Debye-Ang):
   XX=             -1.9169   YY=              0.9930   ZZ=              0.9239
   XY=              0.0000   XZ=              0.3287   YZ=             -0.0001
 Octapole moment (field-independent basis, Debye-Ang**2):
  XXX=             -3.6182  YYY=              0.0014  ZZZ=              0.9456  XYY=              2.4364
  XXY=              0.0007  XXZ=             -4.2718  XZZ=             -0.2864  YZZ=              0.0005
  YYZ=              1.4084  XYZ=              0.0014
 Hexadecapole moment (field-independent basis, Debye-Ang**3):
 XXXX=           -624.4038 YYYY=           -336.9175 ZZZZ=           -311.0423 XXXY=             -0.0038
 XXXZ=              1.4215 YYYX=              0.0011 YYYZ=              0.0024 ZZZX=              2.5781
 ZZZY=             -0.0019 XXYY=           -161.0662 XXZZ=           -162.5394 YYZZ=           -103.3400
 XXYZ=             -0.0012 YYXZ=              3.1233 ZZXY=              0.0014
 N-N= 4.696241936566D+02 E-N=-1.751126626582D+03  KE= 3.486412380156D+02
   1 Symmetry operations used in ECPInt.
 ECPInt:  NShTT=   10878 NPrTT=   32112 LenC2=   10794 LenP2D=   26263.
 LDataN:  DoStor=T MaxTD1= 7 Len=  274
 Calling FoFJK, ICntrl=      2127 FMM=F ISym2X=0 I1Cent= 0 IOpClX= 0 NMat=1 NMatS=1 NMatT=0.
 ***** Axes restored to original set *****
 -------------------------------------------------------------------
 Center     Atomic                   Forces (Hartrees/Bohr)
 Number     Number              X              Y              Z
 -------------------------------------------------------------------
      1        6          -0.003048166   -0.008999038    0.005535722
      2        6          -0.003045204    0.009009541    0.005617434
      3        6           0.003360649    0.006949267    0.001168883
      4        6           0.005810732    0.005876858   -0.003399020
      5        6           0.005820851   -0.005861880   -0.003277234
      6        6           0.003356411   -0.006975861    0.001125022
      7        6           0.006228611    0.000011885    0.003660583
      8        6          -0.006482725    0.006205473   -0.001457735
      9        6          -0.006373186   -0.006203395   -0.001540024
     10        1           0.000184359    0.000239374    0.001080641
     11        1           0.000186899   -0.000243529    0.001035098
     12        1           0.000506545    0.000878326   -0.000028254
     13        1          -0.001009863    0.001107942   -0.004551424
     14        1          -0.001012977   -0.001122445   -0.004589268
     15        1           0.000496471   -0.000857024   -0.000026887
     16        1           0.001096115   -0.000005286    0.000426014
     17        1          -0.000409743    0.000003297    0.002715197
     18        1          -0.001329434    0.001576421   -0.001258066
     19        1          -0.001461476    0.000927210   -0.000527391
     20        1          -0.001532236   -0.000952496   -0.000503370
     21        1          -0.001342632   -0.001564640   -0.001205919
 -------------------------------------------------------------------
 Cartesian Forces:  Max     0.009009541 RMS     0.003603837

 GradGradGradGradGradGradGradGradGradGradGradGradGradGradGradGradGradGrad
 Berny optimization.
 FormGI is forming the generalized inverse of G from B-inverse, IUseBI=4.
 Internal  Forces:  Max     0.012498376 RMS     0.002765196
 Search for a local minimum.
 Step number   1 out of a maximum of  126
 All quantities printed in internal units (Hartrees-Bohrs-Radians)
 Mixed Optimization -- RFO/linear search
 Second derivative matrix not updated -- first step.
 ITU=  0
     Eigenvalues ---    0.00329   0.01306   0.01509   0.01669   0.01771
     Eigenvalues ---    0.02086   0.02209   0.02874   0.03354   0.03386
     Eigenvalues ---    0.03511   0.04161   0.04453   0.04775   0.04877
     Eigenvalues ---    0.04912   0.04919   0.05347   0.05727   0.05778
     Eigenvalues ---    0.05982   0.06320   0.06487   0.06750   0.07491
     Eigenvalues ---    0.07511   0.07766   0.08222   0.09451   0.11051
     Eigenvalues ---    0.12947   0.15845   0.15985   0.16007   0.18059
     Eigenvalues ---    0.22851   0.24385   0.25581   0.25867   0.27247
     Eigenvalues ---    0.28074   0.28157   0.28645   0.31163   0.34849
     Eigenvalues ---    0.34857   0.34888   0.34906   0.35007   0.35021
     Eigenvalues ---    0.35072   0.35076   0.35078   0.35088   0.36580
     Eigenvalues ---    0.36587   0.52634
 RFO step:  Lambda=-5.43919530D-03 EMin= 3.28562406D-03
 Linear search not attempted -- first point.
 Iteration  1 RMS(Cart)=  0.04107144 RMS(Int)=  0.00047215
 Iteration  2 RMS(Cart)=  0.00061102 RMS(Int)=  0.00008138
 Iteration  3 RMS(Cart)=  0.00000029 RMS(Int)=  0.00008138
 Variable       Old X    -DE/DX   Delta X   Delta X   Delta X     New X
                                 (Linear)    (Quad)   (Total)
    R1        2.91320   0.01005   0.00000   0.03414   0.03427   2.94747
    R2        2.92386   0.01249   0.00000   0.04422   0.04425   2.96811
    R3        2.90756   0.00910   0.00000   0.03116   0.03116   2.93873
    R4        2.05908   0.00079   0.00000   0.00224   0.00224   2.06131
    R5        2.92380   0.01250   0.00000   0.04426   0.04429   2.96809
    R6        2.90744   0.00911   0.00000   0.03123   0.03123   2.93867
    R7        2.05921   0.00075   0.00000   0.00212   0.00212   2.06133
    R8        2.84745   0.00844   0.00000   0.02556   0.02555   2.87300
    R9        2.90582   0.00693   0.00000   0.02440   0.02433   2.93015
   R10        2.05552   0.00097   0.00000   0.00271   0.00271   2.05823
   R11        2.50691   0.00873   0.00000   0.01325   0.01320   2.52011
   R12        2.03184   0.00422   0.00000   0.01138   0.01138   2.04322
   R13        2.84763   0.00840   0.00000   0.02546   0.02544   2.87307
   R14        2.03173   0.00426   0.00000   0.01148   0.01148   2.04321
   R15        2.90575   0.00694   0.00000   0.02443   0.02436   2.93011
   R16        2.05558   0.00094   0.00000   0.00265   0.00265   2.05823
   R17        2.05828   0.00096   0.00000   0.00271   0.00271   2.06099
   R18        2.05857   0.00274   0.00000   0.00775   0.00775   2.06632
   R19        2.90602   0.00855   0.00000   0.03111   0.03113   2.93715
   R20        2.05532   0.00148   0.00000   0.00414   0.00414   2.05947
   R21        2.05664   0.00143   0.00000   0.00401   0.00401   2.06065
   R22        2.05640   0.00150   0.00000   0.00423   0.00423   2.06063
   R23        2.05549   0.00142   0.00000   0.00399   0.00399   2.05948
    A1        1.79885  -0.00065   0.00000  -0.00434  -0.00441   1.79444
    A2        1.56951  -0.00025   0.00000  -0.00047  -0.00048   1.56903
    A3        2.04151   0.00037   0.00000  -0.01104  -0.01120   2.03031
    A4        2.07824   0.00394   0.00000   0.03960   0.03959   2.11782
    A5        1.93528  -0.00134   0.00000  -0.01327  -0.01348   1.92180
    A6        2.00582  -0.00167   0.00000  -0.00906  -0.00912   1.99670
    A7        1.79885  -0.00065   0.00000  -0.00436  -0.00442   1.79443
    A8        1.56961  -0.00026   0.00000  -0.00055  -0.00056   1.56905
    A9        2.04134   0.00038   0.00000  -0.01088  -0.01104   2.03029
   A10        2.07821   0.00394   0.00000   0.03962   0.03960   2.11781
   A11        1.93524  -0.00134   0.00000  -0.01327  -0.01348   1.92176
   A12        2.00595  -0.00167   0.00000  -0.00913  -0.00919   1.99676
   A13        1.87920   0.00356   0.00000   0.03446   0.03444   1.91365
   A14        1.73539  -0.00077   0.00000  -0.00995  -0.00997   1.72542
   A15        1.99953  -0.00108   0.00000  -0.00588  -0.00600   1.99353
   A16        1.74173  -0.00096   0.00000  -0.00575  -0.00561   1.73613
   A17        2.02322  -0.00081   0.00000  -0.00663  -0.00681   2.01641
   A18        2.04690   0.00035   0.00000  -0.00409  -0.00419   2.04272
   A19        1.87921  -0.00035   0.00000   0.00006  -0.00004   1.87917
   A20        2.16644   0.00207   0.00000   0.01099   0.01081   2.17726
   A21        2.23681  -0.00174   0.00000  -0.01216  -0.01230   2.22451
   A22        1.87906  -0.00033   0.00000   0.00018   0.00007   1.87913
   A23        2.23704  -0.00177   0.00000  -0.01230  -0.01245   2.22459
   A24        2.16638   0.00207   0.00000   0.01102   0.01084   2.17722
   A25        1.87915   0.00356   0.00000   0.03450   0.03448   1.91363
   A26        1.73541  -0.00077   0.00000  -0.00995  -0.00997   1.72544
   A27        1.99959  -0.00109   0.00000  -0.00592  -0.00604   1.99355
   A28        1.74177  -0.00096   0.00000  -0.00579  -0.00565   1.73612
   A29        2.02316  -0.00080   0.00000  -0.00658  -0.00676   2.01640
   A30        2.04691   0.00035   0.00000  -0.00410  -0.00420   2.04272
   A31        1.63302   0.00095   0.00000  -0.00312  -0.00335   1.62967
   A32        1.97018  -0.00016   0.00000   0.00358   0.00366   1.97384
   A33        1.98143  -0.00029   0.00000  -0.00101  -0.00095   1.98048
   A34        1.97028  -0.00016   0.00000   0.00350   0.00358   1.97386
   A35        1.98140  -0.00029   0.00000  -0.00097  -0.00091   1.98049
   A36        1.91526   0.00003   0.00000  -0.00182  -0.00187   1.91339
   A37        1.57203   0.00026   0.00000   0.00053   0.00054   1.57256
   A38        1.99871   0.00047   0.00000   0.00890   0.00886   2.00757
   A39        1.98494   0.00013   0.00000   0.00262   0.00262   1.98756
   A40        2.00202   0.00017   0.00000   0.00652   0.00651   2.00853
   A41        1.99093  -0.00000   0.00000  -0.00302  -0.00307   1.98786
   A42        1.90077  -0.00079   0.00000  -0.01231  -0.01229   1.88848
   A43        1.57204   0.00025   0.00000   0.00049   0.00051   1.57254
   A44        1.98492   0.00013   0.00000   0.00267   0.00267   1.98758
   A45        1.99868   0.00047   0.00000   0.00889   0.00885   2.00753
   A46        1.99106  -0.00001   0.00000  -0.00311  -0.00316   1.98790
   A47        2.00186   0.00018   0.00000   0.00663   0.00663   2.00849
   A48        1.90083  -0.00080   0.00000  -0.01233  -0.01232   1.88851
    D1        0.00005   0.00000   0.00000  -0.00001  -0.00001   0.00004
    D2        2.09278   0.00393   0.00000   0.04027   0.04023   2.13301
    D3       -2.12766   0.00195   0.00000   0.02647   0.02645  -2.10121
    D4       -2.09268  -0.00392   0.00000  -0.04030  -0.04026  -2.13294
    D5        0.00005   0.00000   0.00000  -0.00002  -0.00002   0.00003
    D6        2.06279  -0.00197   0.00000  -0.01382  -0.01380   2.04899
    D7        2.12792  -0.00195   0.00000  -0.02658  -0.02656   2.10136
    D8       -2.06254   0.00197   0.00000   0.01371   0.01368  -2.04885
    D9        0.00021  -0.00000   0.00000  -0.00010  -0.00010   0.00011
   D10       -1.15834   0.00072   0.00000   0.01174   0.01180  -1.14655
   D11        0.64856   0.00028   0.00000   0.01038   0.01033   0.65889
   D12        2.84646  -0.00041   0.00000  -0.00463  -0.00462   2.84184
   D13        0.54034   0.00125   0.00000   0.02072   0.02074   0.56107
   D14        2.34724   0.00080   0.00000   0.01936   0.01927   2.36651
   D15       -1.73805   0.00012   0.00000   0.00435   0.00432  -1.73373
   D16        2.92686   0.00144   0.00000   0.03534   0.03532   2.96219
   D17       -1.54942   0.00100   0.00000   0.03398   0.03385  -1.51557
   D18        0.64848   0.00031   0.00000   0.01897   0.01890   0.66738
   D19       -0.00005  -0.00000   0.00000   0.00002   0.00002  -0.00003
   D20       -2.03338  -0.00014   0.00000   0.00266   0.00270  -2.03068
   D21        2.04853   0.00045   0.00000   0.00984   0.00991   2.05844
   D22       -1.83176   0.00031   0.00000  -0.00053  -0.00064  -1.83240
   D23        2.41809   0.00017   0.00000   0.00211   0.00205   2.42014
   D24        0.21682   0.00076   0.00000   0.00930   0.00925   0.22607
   D25        2.09378  -0.00016   0.00000  -0.01517  -0.01526   2.07852
   D26        0.06045  -0.00030   0.00000  -0.01253  -0.01257   0.04787
   D27       -2.14083   0.00029   0.00000  -0.00535  -0.00537  -2.14619
   D28        1.15825  -0.00073   0.00000  -0.01170  -0.01175   1.14650
   D29       -0.64862  -0.00029   0.00000  -0.01037  -0.01031  -0.65894
   D30       -2.84647   0.00040   0.00000   0.00461   0.00460  -2.84187
   D31       -0.54054  -0.00124   0.00000  -0.02058  -0.02060  -0.56114
   D32       -2.34741  -0.00080   0.00000  -0.01925  -0.01916  -2.36658
   D33        1.73793  -0.00011   0.00000  -0.00428  -0.00425   1.73368
   D34       -2.92719  -0.00143   0.00000  -0.03511  -0.03509  -2.96228
   D35        1.54912  -0.00099   0.00000  -0.03378  -0.03365   1.51547
   D36       -0.64872  -0.00030   0.00000  -0.01880  -0.01874  -0.66746
   D37       -0.00005  -0.00000   0.00000   0.00002   0.00002  -0.00003
   D38       -2.04880  -0.00044   0.00000  -0.00970  -0.00977  -2.05857
   D39        2.03314   0.00015   0.00000  -0.00252  -0.00256   2.03058
   D40        1.83172  -0.00032   0.00000   0.00051   0.00063   1.83234
   D41       -0.21703  -0.00076   0.00000  -0.00921  -0.00916  -0.22620
   D42       -2.41828  -0.00017   0.00000  -0.00202  -0.00196  -2.42023
   D43       -2.09376   0.00015   0.00000   0.01509   0.01517  -2.07859
   D44        2.14067  -0.00029   0.00000   0.00537   0.00539   2.14606
   D45       -0.06057   0.00030   0.00000   0.01255   0.01259  -0.04798
   D46       -1.21269   0.00073   0.00000   0.01087   0.01104  -1.20165
   D47        1.89117  -0.00002   0.00000  -0.01869  -0.01873   1.87244
   D48        0.58967   0.00044   0.00000   0.00671   0.00677   0.59644
   D49       -2.58965  -0.00031   0.00000  -0.02285  -0.02300  -2.61266
   D50        2.80526  -0.00030   0.00000  -0.00653  -0.00640   2.79886
   D51       -0.37406  -0.00105   0.00000  -0.03608  -0.03617  -0.41023
   D52        1.03393   0.00173   0.00000   0.02189   0.02188   1.05581
   D53        3.07070   0.00199   0.00000   0.02526   0.02523   3.09592
   D54       -1.01861   0.00165   0.00000   0.02492   0.02494  -0.99367
   D55       -0.88476  -0.00156   0.00000  -0.01024  -0.01025  -0.89501
   D56        1.15200  -0.00130   0.00000  -0.00687  -0.00690   1.14510
   D57       -2.93731  -0.00164   0.00000  -0.00721  -0.00719  -2.94449
   D58       -3.08431  -0.00000   0.00000   0.00498   0.00498  -3.07934
   D59       -1.04755   0.00025   0.00000   0.00835   0.00833  -1.03922
   D60        1.14633  -0.00009   0.00000   0.00801   0.00804   1.15437
   D61       -0.00003   0.00000   0.00000   0.00005   0.00005   0.00002
   D62        3.10200  -0.00069   0.00000  -0.03053  -0.03023   3.07177
   D63       -3.10190   0.00069   0.00000   0.03049   0.03020  -3.07170
   D64        0.00013  -0.00000   0.00000  -0.00009  -0.00008   0.00004
   D65        1.21274  -0.00073   0.00000  -0.01095  -0.01112   1.20162
   D66       -0.58964  -0.00044   0.00000  -0.00678  -0.00684  -0.59648
   D67       -2.80523   0.00030   0.00000   0.00646   0.00633  -2.79889
   D68       -1.89128   0.00003   0.00000   0.01874   0.01878  -1.87250
   D69        2.58952   0.00032   0.00000   0.02290   0.02306   2.61258
   D70        0.37393   0.00106   0.00000   0.03615   0.03623   0.41017
   D71       -1.03389  -0.00173   0.00000  -0.02191  -0.02189  -1.05578
   D72       -3.07057  -0.00199   0.00000  -0.02534  -0.02531  -3.09588
   D73        1.01868  -0.00165   0.00000  -0.02497  -0.02499   0.99369
   D74        0.88476   0.00156   0.00000   0.01025   0.01026   0.89502
   D75       -1.15192   0.00130   0.00000   0.00682   0.00684  -1.14508
   D76        2.93733   0.00164   0.00000   0.00718   0.00716   2.94449
   D77        3.08426   0.00001   0.00000  -0.00494  -0.00493   3.07933
   D78        1.04758  -0.00025   0.00000  -0.00837  -0.00835   1.03923
   D79       -1.14635   0.00009   0.00000  -0.00800  -0.00803  -1.15438
   D80        0.00005   0.00000   0.00000  -0.00002  -0.00002   0.00003
   D81        2.02788   0.00027   0.00000   0.00252   0.00251   2.03040
   D82       -2.04571  -0.00071   0.00000  -0.01186  -0.01189  -2.05759
   D83        2.04586   0.00071   0.00000   0.01183   0.01186   2.05772
   D84       -2.20949   0.00098   0.00000   0.01437   0.01439  -2.19510
   D85        0.00011  -0.00000   0.00000  -0.00001  -0.00001   0.00010
   D86       -2.02778  -0.00027   0.00000  -0.00254  -0.00253  -2.03031
   D87        0.00005   0.00000   0.00000   0.00000   0.00000   0.00005
   D88        2.20965  -0.00098   0.00000  -0.01438  -0.01440   2.19525
         Item               Value     Threshold  Converged?
 Maximum Force            0.012498     0.000450     NO 
 RMS     Force            0.002765     0.000300     NO 
 Maximum Displacement     0.190825     0.001800     NO 
 RMS     Displacement     0.041195     0.001200     NO 
 Predicted change in Energy=-2.838590D-03
 GradGradGradGradGradGradGradGradGradGradGradGradGradGradGradGradGradGrad

                          Input orientation:                          
 ---------------------------------------------------------------------
 Center     Atomic      Atomic             Coordinates (Angstroms)
 Number     Number       Type             X           Y           Z
 ---------------------------------------------------------------------
      1          6           0       -0.638714   -0.779769    0.714649
      2          6           0       -0.638811    0.779966    0.714377
      3          6           0        0.813175    1.128306    0.227214
      4          6           0        0.994618    0.666636   -1.209910
      5          6           0        0.994738   -0.666948   -1.209675
      6          6           0        0.813342   -1.128104    0.227663
      7          6           0        1.587048    0.000287    0.957255
      8          6           0       -1.843135    0.777003   -0.269420
      9          6           0       -1.843033   -0.777270   -0.269207
     10          1           0       -0.839516   -1.263399    1.671533
     11          1           0       -0.839571    1.263891    1.671129
     12          1           0        1.119934    2.152832    0.433441
     13          1           0        1.042329    1.324023   -2.067007
     14          1           0        1.042601   -1.324692   -2.066479
     15          1           0        1.120248   -2.152509    0.434280
     16          1           0        2.654625    0.000333    0.734204
     17          1           0        1.438115    0.000491    2.040514
     18          1           0       -1.648943    1.238846   -1.237255
     19          1           0       -2.750917    1.218715    0.142771
     20          1           0       -2.750752   -1.219026    0.143045
     21          1           0       -1.648680   -1.239314   -1.236920
 ---------------------------------------------------------------------
                    Distance matrix (angstroms):
                    1          2          3          4          5
     1  C    0.000000
     2  C    1.559735   0.000000
     3  C    2.446697   1.570647   0.000000
     4  C    2.909259   2.526622   1.520325   0.000000
     5  C    2.526641   2.909298   2.306633   1.333584   0.000000
     6  C    1.570656   2.446706   2.256410   2.306635   1.520364
     7  C    2.370941   2.370936   1.550570   2.343416   2.343420
     8  C    2.200582   1.555076   2.725077   2.991579   3.320029
     9  C    1.555109   2.200584   3.306523   3.319948   2.991588
    10  H    1.090801   2.265341   3.246182   3.923238   3.467217
    11  H    2.265335   1.090809   2.198828   3.467182   3.923246
    12  H    3.431045   2.248749   1.089167   2.219254   3.265987
    13  H    3.871622   3.295197   2.313928   1.081226   2.168237
    14  H    3.295214   3.871678   3.366135   2.168271   1.081218
    15  H    2.248771   3.431058   3.301655   3.265995   2.219286
    16  H    3.384527   3.384515   2.218175   2.641810   2.641809
    17  H    2.584559   2.584540   2.224989   3.347491   3.347504
    18  H    2.984175   2.244951   2.866865   2.704920   3.259120
    19  H    2.963508   2.231641   3.566238   4.020394   4.406219
    20  H    2.231677   2.963559   4.268328   4.406133   4.020365
    21  H    2.244958   2.984105   3.716187   3.258896   2.704811
                    6          7          8          9         10
     6  C    0.000000
     7  C    1.550546   0.000000
     8  C    3.306568   3.724805   0.000000
     9  C    2.725123   3.724817   1.554272   0.000000
    10  H    2.198864   2.827597   2.989613   2.238267   0.000000
    11  H    3.246130   2.827506   2.238288   2.989678   2.527290
    12  H    3.301649   2.264073   3.341662   4.225919   4.128311
    13  H    3.366136   3.345916   3.443320   3.996603   4.920647
    14  H    2.313935   3.345887   3.996750   3.443363   4.185553
    15  H    1.089169   2.264053   4.225976   3.341738   2.482335
    16  H    2.218170   1.090629   4.673363   4.673374   3.832052
    17  H    2.224971   1.093449   4.087220   4.087256   2.630811
    18  H    3.716354   4.101407   1.089823   2.244885   3.921409
    19  H    4.268337   4.578852   1.090449   2.231128   3.485893
    20  H    3.566257   4.578883   2.231149   1.090437   2.447665
    21  H    2.866866   4.101335   2.244861   1.089829   3.019011
                   11         12         13         14         15
    11  H    0.000000
    12  H    2.482287   0.000000
    13  H    4.185549   2.635372   0.000000
    14  H    4.920676   4.283545   2.648715   0.000000
    15  H    4.128254   4.305342   4.283548   2.635357   0.000000
    16  H    3.831947   2.660636   3.492625   3.492583   2.660638
    17  H    2.630681   2.704902   4.333602   4.333582   2.704891
    18  H    3.019008   3.360548   2.817568   3.808379   4.686549
    19  H    2.447684   3.992562   4.391232   5.073508   5.141600
    20  H    3.486048   5.141592   5.073351   4.391206   3.992600
    21  H    3.921408   4.686362   3.808054   2.817526   3.360625
                   16         17         18         19         20
    16  H    0.000000
    17  H    1.785033   0.000000
    18  H    4.892981   4.669821   0.000000
    19  H    5.572623   4.757466   1.766132   0.000000
    20  H    5.572648   4.757543   3.026606   2.437741   0.000000
    21  H    4.892902   4.669796   2.478160   3.026612   1.766148
                   21
    21  H    0.000000
 Stoichiometry    C9H12
 Framework group  C1[X(C9H12)]
 Deg. of freedom    57
 Full point group                 C1      NOp   1
 Largest Abelian subgroup         C1      NOp   1
 Largest concise Abelian subgroup C1      NOp   1
                         Standard orientation:                         
 ---------------------------------------------------------------------
 Center     Atomic      Atomic             Coordinates (Angstroms)
 Number     Number       Type             X           Y           Z
 ---------------------------------------------------------------------
      1          6           0       -0.635937    0.779822   -0.709250
      2          6           0       -0.635969   -0.779912   -0.709123
      3          6           0        0.820525   -1.128239   -0.235598
      4          6           0        1.015387   -0.666695    1.199809
      5          6           0        1.015450    0.666889    1.199698
      6          6           0        0.820597    1.128171   -0.235836
      7          6           0        1.587489   -0.000120   -0.972740
      8          6           0       -1.831037   -0.777090    0.285898
      9          6           0       -1.830999    0.777182    0.285829
     10          1           0       -0.845701    1.263533   -1.664168
     11          1           0       -0.845651   -1.263756   -1.664001
     12          1           0        1.125383   -2.152733   -0.444782
     13          1           0        1.071139   -1.324161    2.056360
     14          1           0        1.071300    1.324555    2.056079
     15          1           0        1.125517    2.152609   -0.445220
     16          1           0        2.657106   -0.000143   -0.759686
     17          1           0        1.428430   -0.000228   -2.054559
     18          1           0       -1.627781   -1.239016    1.251830
     19          1           0       -2.742617   -1.218801   -0.117825
     20          1           0       -2.742552    1.218940   -0.117872
     21          1           0       -1.627620    1.239144    1.251725
 ---------------------------------------------------------------------
 Rotational constants (GHZ):           2.8675382           1.7981563           1.7438877
 Standard basis: def2TZVP (5D, 7F)
 There are   396 symmetry adapted cartesian basis functions of A   symmetry.
 There are   351 symmetry adapted basis functions of A   symmetry.
   351 basis functions,   555 primitive gaussians,   396 cartesian basis functions
    33 alpha electrons       33 beta electrons
       nuclear repulsion energy       463.4827313886 Hartrees.
 NAtoms=   21 NActive=   21 NUniq=   21 SFac= 1.00D+00 NAtFMM=   60 NAOKFM=F Big=F
 Integral buffers will be    131072 words long.
 Raffenetti 2 integral format.
 Two-electron integral symmetry is turned on.
 One-electron integrals computed using PRISM.
   1 Symmetry operations used in ECPInt.
 ECPInt:  NShTT=   10878 NPrTT=   32112 LenC2=   10786 LenP2D=   26158.
 LDataN:  DoStor=T MaxTD1= 6 Len=  172
 NBasis=   351 RedAO= T EigKep=  1.50D-05  NBF=   351
 NBsUse=   351 1.00D-06 EigRej= -1.00D+00 NBFU=   351
 Initial guess from the checkpoint file:  "/tmp/Gau-3076372.chk"
 B after Tr=     0.000000   -0.000000   -0.000000
         Rot=    0.999872   -0.000055   -0.015970   -0.000012 Ang=  -1.83 deg.
 ExpMin= 9.52D-02 ExpMax= 1.36D+04 ExpMxC= 4.63D+02 IAcc=3 IRadAn=         5 AccDes= 0.00D+00
 Harris functional with IExCor=  402 and IRadAn=       5 diagonalized for initial guess.
 HarFok:  IExCor=  402 AccDes= 0.00D+00 IRadAn=         5 IDoV= 1 UseB2=F ITyADJ=14
 ICtDFT=  3500011 ScaDFX=  1.000000  1.000000  1.000000  1.000000
 FoFCou: FMM=F IPFlag=           0 FMFlag=      100000 FMFlg1=           0
         NFxFlg=           0 DoJE=T BraDBF=F KetDBF=T FulRan=T
         wScrn=  0.000000 ICntrl=       500 IOpCl=  0 I1Cent=   200000004 NGrid=           0
         NMat0=    1 NMatS0=      1 NMatT0=    0 NMatD0=    1 NMtDS0=    0 NMtDT0=    0
 Petite list used in FoFCou.
 Requested convergence on RMS density matrix=1.00D-08 within 128 cycles.
 Requested convergence on MAX density matrix=1.00D-06.
 Requested convergence on             energy=1.00D-06.
 No special actions if energy rises.
 Integral accuracy reduced to 1.0D-05 until final iterations.
 Initial convergence to 1.0D-05 achieved.  Increase integral accuracy.
 SCF Done:  E(RB3LYP) =  -350.235132652     A.U. after   10 cycles
            NFock= 10  Conv=0.90D-08     -V/T= 2.0056
   1 Symmetry operations used in ECPInt.
 ECPInt:  NShTT=   10878 NPrTT=   32112 LenC2=   10786 LenP2D=   26158.
 LDataN:  DoStor=T MaxTD1= 7 Len=  274
 Calling FoFJK, ICntrl=      2127 FMM=F ISym2X=0 I1Cent= 0 IOpClX= 0 NMat=1 NMatS=1 NMatT=0.
 ***** Axes restored to original set *****
 -------------------------------------------------------------------
 Center     Atomic                   Forces (Hartrees/Bohr)
 Number     Number              X              Y              Z
 -------------------------------------------------------------------
      1        6           0.000167622   -0.000509639   -0.001387908
      2        6           0.000175991    0.000508262   -0.001374998
      3        6           0.000364340    0.001530163    0.000304235
      4        6          -0.001699364    0.001452488    0.001617418
      5        6          -0.001701625   -0.001458446    0.001648430
      6        6           0.000362351   -0.001532638    0.000286435
      7        6          -0.000855236    0.000006718    0.000662655
      8        6           0.001129715   -0.000089676    0.000022390
      9        6           0.001153719    0.000092889    0.000016235
     10        1           0.000621214    0.000182421   -0.000102965
     11        1           0.000616978   -0.000182529   -0.000109021
     12        1          -0.000037642   -0.000100166    0.000049524
     13        1          -0.000341517   -0.000419194   -0.000407389
     14        1          -0.000343824    0.000420876   -0.000414571
     15        1          -0.000039037    0.000101406    0.000049484
     16        1          -0.000349242   -0.000001081   -0.000155175
     17        1          -0.000308284    0.000000218   -0.000255572
     18        1           0.000131889   -0.000021858   -0.000469669
     19        1           0.000414365    0.000161018    0.000241574
     20        1           0.000408868   -0.000162559    0.000243992
     21        1           0.000128721    0.000021328   -0.000465104
 -------------------------------------------------------------------
 Cartesian Forces:  Max     0.001701625 RMS     0.000710115

 GradGradGradGradGradGradGradGradGradGradGradGradGradGradGradGradGradGrad
 Berny optimization.
 Using GEDIIS/GDIIS optimizer.
 FormGI is forming the generalized inverse of G from B-inverse, IUseBI=4.
 Internal  Forces:  Max     0.002729172 RMS     0.000577345
 Search for a local minimum.
 Step number   2 out of a maximum of  126
 All quantities printed in internal units (Hartrees-Bohrs-Radians)
 Mixed Optimization -- En-DIIS/RFO-DIIS
 Update second derivatives using D2CorX and points    1    2
 DE= -2.18D-03 DEPred=-2.84D-03 R= 7.68D-01
 TightC=F SS=  1.41D+00  RLast= 2.11D-01 DXNew= 5.0454D-01 6.3257D-01
 Trust test= 7.68D-01 RLast= 2.11D-01 DXMaxT set to 5.05D-01
 ITU=  1  0
 Use linear search instead of GDIIS.
     Eigenvalues ---    0.00330   0.01288   0.01509   0.01689   0.01747
     Eigenvalues ---    0.02061   0.02198   0.02854   0.03301   0.03369
     Eigenvalues ---    0.03544   0.04183   0.04373   0.04892   0.04909
     Eigenvalues ---    0.04938   0.04939   0.05325   0.05718   0.05742
     Eigenvalues ---    0.06047   0.06309   0.06469   0.06763   0.07352
     Eigenvalues ---    0.07582   0.07684   0.08453   0.10071   0.11269
     Eigenvalues ---    0.12764   0.15779   0.15856   0.16254   0.18106
     Eigenvalues ---    0.22990   0.24343   0.25311   0.25915   0.27094
     Eigenvalues ---    0.28197   0.28288   0.29617   0.32173   0.34851
     Eigenvalues ---    0.34862   0.34884   0.34928   0.35004   0.35017
     Eigenvalues ---    0.35063   0.35074   0.35083   0.35132   0.36490
     Eigenvalues ---    0.36584   0.52204
 RFO step:  Lambda=-2.03934484D-04 EMin= 3.29754383D-03
 Quartic linear search produced a step of -0.14834.
 Iteration  1 RMS(Cart)=  0.01161609 RMS(Int)=  0.00005718
 Iteration  2 RMS(Cart)=  0.00007450 RMS(Int)=  0.00001436
 Iteration  3 RMS(Cart)=  0.00000000 RMS(Int)=  0.00001436
 Variable       Old X    -DE/DX   Delta X   Delta X   Delta X     New X
                                 (Linear)    (Quad)   (Total)
    R1        2.94747   0.00046  -0.00508   0.00885   0.00374   2.95121
    R2        2.96811  -0.00273  -0.00656  -0.00013  -0.00670   2.96141
    R3        2.93873  -0.00117  -0.00462   0.00216  -0.00247   2.93626
    R4        2.06131  -0.00029  -0.00033  -0.00029  -0.00062   2.06069
    R5        2.96809  -0.00273  -0.00657  -0.00010  -0.00668   2.96141
    R6        2.93867  -0.00117  -0.00463   0.00220  -0.00244   2.93623
    R7        2.06133  -0.00029  -0.00031  -0.00032  -0.00064   2.06069
    R8        2.87300  -0.00139  -0.00379   0.00108  -0.00270   2.87029
    R9        2.93015   0.00042  -0.00361   0.00459   0.00098   2.93113
   R10        2.05823  -0.00010  -0.00040   0.00026  -0.00014   2.05809
   R11        2.52011   0.00105  -0.00196   0.00421   0.00227   2.52238
   R12        2.04322   0.00005  -0.00169   0.00219   0.00050   2.04372
   R13        2.87307  -0.00140  -0.00377   0.00102  -0.00275   2.87032
   R14        2.04321   0.00006  -0.00170   0.00222   0.00052   2.04372
   R15        2.93011   0.00043  -0.00361   0.00461   0.00101   2.93111
   R16        2.05823  -0.00010  -0.00039   0.00025  -0.00015   2.05808
   R17        2.06099  -0.00031  -0.00040  -0.00027  -0.00067   2.06032
   R18        2.06632  -0.00021  -0.00115   0.00090  -0.00025   2.06607
   R19        2.93715   0.00031  -0.00462   0.00615   0.00153   2.93868
   R20        2.05947   0.00043  -0.00061   0.00181   0.00119   2.06066
   R21        2.06065  -0.00019  -0.00059   0.00027  -0.00033   2.06032
   R22        2.06063  -0.00018  -0.00063   0.00032  -0.00030   2.06032
   R23        2.05948   0.00043  -0.00059   0.00177   0.00118   2.06065
    A1        1.79444   0.00036   0.00065   0.00130   0.00196   1.79640
    A2        1.56903  -0.00003   0.00007  -0.00045  -0.00037   1.56866
    A3        2.03031  -0.00020   0.00166  -0.00109   0.00060   2.03091
    A4        2.11782  -0.00081  -0.00587  -0.00035  -0.00622   2.11160
    A5        1.92180  -0.00006   0.00200  -0.00310  -0.00107   1.92074
    A6        1.99670   0.00069   0.00135   0.00383   0.00518   2.00188
    A7        1.79443   0.00036   0.00066   0.00129   0.00195   1.79639
    A8        1.56905  -0.00003   0.00008  -0.00047  -0.00038   1.56867
    A9        2.03029  -0.00020   0.00164  -0.00104   0.00062   2.03091
   A10        2.11781  -0.00081  -0.00587  -0.00033  -0.00620   2.11160
   A11        1.92176  -0.00006   0.00200  -0.00309  -0.00105   1.92070
   A12        1.99676   0.00069   0.00136   0.00378   0.00514   2.00190
   A13        1.91365  -0.00177  -0.00511  -0.01076  -0.01587   1.89778
   A14        1.72542  -0.00010   0.00148  -0.00359  -0.00209   1.72333
   A15        1.99353   0.00056   0.00089   0.00251   0.00341   1.99695
   A16        1.73613   0.00041   0.00083   0.00372   0.00447   1.74060
   A17        2.01641   0.00056   0.00101   0.00382   0.00484   2.02125
   A18        2.04272   0.00013   0.00062   0.00285   0.00346   2.04618
   A19        1.87917   0.00020   0.00001   0.00208   0.00208   1.88125
   A20        2.17726   0.00044  -0.00160   0.00364   0.00205   2.17931
   A21        2.22451  -0.00064   0.00183  -0.00648  -0.00463   2.21988
   A22        1.87913   0.00021  -0.00001   0.00211   0.00210   1.88124
   A23        2.22459  -0.00065   0.00185  -0.00654  -0.00468   2.21991
   A24        2.17722   0.00045  -0.00161   0.00366   0.00208   2.17929
   A25        1.91363  -0.00176  -0.00511  -0.01076  -0.01587   1.89775
   A26        1.72544  -0.00010   0.00148  -0.00360  -0.00210   1.72334
   A27        1.99355   0.00055   0.00090   0.00249   0.00340   1.99696
   A28        1.73612   0.00041   0.00084   0.00372   0.00448   1.74060
   A29        2.01640   0.00056   0.00100   0.00384   0.00484   2.02125
   A30        2.04272   0.00013   0.00062   0.00285   0.00347   2.04619
   A31        1.62967   0.00035   0.00050   0.00479   0.00529   1.63496
   A32        1.97384  -0.00027  -0.00054  -0.00096  -0.00151   1.97233
   A33        1.98048  -0.00004   0.00014  -0.00175  -0.00160   1.97888
   A34        1.97386  -0.00027  -0.00053  -0.00099  -0.00152   1.97234
   A35        1.98049  -0.00004   0.00014  -0.00174  -0.00160   1.97889
   A36        1.91339   0.00023   0.00028   0.00087   0.00115   1.91454
   A37        1.57256   0.00002  -0.00008   0.00046   0.00037   1.57294
   A38        2.00757   0.00012  -0.00131   0.00198   0.00067   2.00824
   A39        1.98756  -0.00030  -0.00039  -0.00296  -0.00334   1.98422
   A40        2.00853  -0.00003  -0.00097  -0.00049  -0.00146   2.00707
   A41        1.98786   0.00008   0.00046   0.00224   0.00270   1.99056
   A42        1.88848   0.00009   0.00182  -0.00095   0.00087   1.88935
   A43        1.57254   0.00003  -0.00007   0.00046   0.00038   1.57293
   A44        1.98758  -0.00030  -0.00040  -0.00295  -0.00335   1.98424
   A45        2.00753   0.00012  -0.00131   0.00198   0.00068   2.00821
   A46        1.98790   0.00007   0.00047   0.00220   0.00268   1.99059
   A47        2.00849  -0.00003  -0.00098  -0.00045  -0.00144   2.00705
[...]
 0.00181414,0.00053322,0.00309441,0.00167171,-0.00553468,0.02321845,0.1
 0060744,0.04285055,0.10259263,-0.25142244,-0.00324317,-0.00275132,0.00
 548650,0.00025972,-0.00152023,0.00036233,0.00025831,-0.00038977,-0.000
 14546,0.00198125,-0.00054502,0.00028651,0.00177544,0.00456622,-0.00922
 338,-0.00015529,0.00015517,-0.00014790,-0.00080289,0.00068318,-0.00022
 640,0.00571115,0.00612173,-0.01418251,-0.04635120,-0.11086829,0.266656
 65,-0.00106072,-0.00186775,0.00051853,-0.05512095,0.02452955,0.0419126
 3,-0.00724340,0.01183787,0.02554696,-0.00451963,-0.00111320,-0.0003620
 2,-0.00015370,0.00102336,0.00052748,-0.00194171,0.00048301,0.00056604,
 0.00151550,-0.00028937,0.00058862,0.00458411,-0.00853965,-0.02024415,-
 0.00170824,-0.00100100,-0.00044104,0.00088617,-0.00011040,0.00011455,0
 .06355192,0.00762123,-0.00797687,-0.02509492,0.02538157,-0.09682447,-0
 .10261430,-0.00379097,0.00467836,0.01026507,-0.00220021,0.00032238,0.0
 0013770,-0.00038057,-0.00002853,0.00142326,-0.00073553,-0.00414734,-0.
 00038939,-0.00007680,-0.00011827,-0.00061937,-0.00309206,0.00166997,0.
 00552652,-0.00129479,-0.00181493,-0.00053278,0.00011022,0.00257539,0.0
 0099701,-0.02323786,0.10067951,-0.00324615,0.00275564,0.00549428,0.042
 85190,-0.10264189,-0.25135185,0.00177739,-0.00457106,-0.00922582,0.001
 98202,0.00054528,0.00028628,0.00025841,0.00038977,-0.00014610,0.000259
 82,0.00152180,0.00036194,-0.00015533,-0.00015519,-0.00014763,0.0057127
 2,-0.00612653,-0.01418211,-0.00080246,-0.00068275,-0.00022594,0.000114
 64,-0.00099756,0.00097716,-0.04635415,0.11092125,0.26658043,-0.0042453
 0,-0.00018995,0.00256985,-0.00577597,-0.02666641,-0.00486466,-0.067951
 52,-0.07260532,-0.01685575,-0.00013521,0.00441499,0.00080010,0.0008656
 2,0.00005575,0.00008457,-0.00198526,0.00366127,-0.00146510,0.00606675,
 0.01481806,0.00634653,-0.00026946,-0.00033954,0.00041853,0.00041568,-0
 .00008459,-0.00037289,-0.00019265,-0.00115713,-0.00025534,0.00150038,0
 .00111328,-0.00007608,0.07046758,0.00035664,0.00025916,0.00028563,0.00
 053615,-0.00183563,-0.00046218,-0.07050948,-0.28339684,-0.04819555,-0.
 00030585,-0.00338955,0.00050153,-0.00054731,-0.00050334,-0.00054129,0.
 00172386,-0.00318206,0.00151960,-0.00702187,-0.01269778,-0.00569470,-0
 .00033342,-0.00029983,0.00007816,-0.00029354,0.00002131,-0.00012863,-0
 .00010143,-0.00021748,-0.00009532,-0.00038408,0.00051170,0.00060056,0.
 07745777,0.30484207,0.00123558,0.00184109,-0.00024722,0.00131731,0.008
 42572,0.00106509,-0.01557277,-0.04744769,-0.05975965,-0.00895771,-0.02
 884988,-0.00075842,0.00052530,-0.00233839,-0.00637803,-0.00108887,0.00
 270945,-0.00236818,0.00702669,0.01280339,0.00409711,0.00000610,0.00022
 374,-0.00000134,0.00015922,0.00003089,0.00007762,0.00011368,0.00055778
 ,0.00010430,-0.00039538,0.00009893,0.00049252,0.01350088,0.05316077,0.
 06098393,0.00032580,0.00138822,-0.00216254,-0.00065915,-0.00022655,0.0
 0000223,0.00231128,-0.00197385,0.00190333,-0.03416268,0.00004669,0.006
 18455,0.00557140,-0.00101788,0.00134698,0.01057315,-0.00140878,-0.0000
 4407,-0.00024420,0.00084828,-0.00014924,-0.00001183,0.00011847,-0.0002
 5022,-0.00011005,-0.00009860,-0.00006887,0.00068315,-0.00016479,-0.000
 23999,-0.00009144,0.00002855,0.00005402,-0.00002684,0.00016161,0.00005
 034,0.02276709,0.00032519,-0.00017740,-0.00013052,-0.00049680,-0.00009
 429,-0.00073827,0.00002061,0.00953884,-0.00859723,-0.00158181,-0.15815
 771,0.13388384,-0.00114093,-0.00916743,0.02739105,0.00094226,-0.005653
 32,-0.00118097,0.00025338,-0.00080298,-0.00275562,0.00026621,-0.000245
 05,0.00052556,-0.00002176,-0.00004734,0.00008862,-0.00015000,0.0000807
 5,0.00001801,0.00022869,0.00010807,-0.00014639,-0.00024373,0.00020084,
 0.00115719,0.00224743,0.16249614,0.00003281,-0.00030381,0.00004458,-0.
 00075461,-0.00047822,-0.00127712,-0.00117982,0.01616227,-0.00817373,0.
 00817943,0.13874905,-0.23979924,-0.00012861,-0.00375865,0.00530245,-0.
 00027455,-0.00087675,0.00045129,0.00133434,-0.00100399,-0.00363535,-0.
 00000258,0.00004430,-0.00029095,-0.00009280,-0.00003846,0.00006201,-0.
 00002628,0.00004109,0.00007147,0.00053861,0.00017289,-0.00017530,-0.00
 020598,-0.00065812,0.00088293,-0.00677127,-0.14980751,0.24564096,-0.00
 065922,0.00022645,0.00000204,0.00032599,-0.00138893,-0.00216206,0.0105
 7307,0.00141080,-0.00004474,0.00557114,0.00102036,0.00135007,-0.034162
 85,-0.00002930,0.00620093,0.00231099,0.00197361,0.00190154,-0.00024406
 ,-0.00084825,-0.00014930,-0.00011008,0.00009857,-0.00006887,-0.0000117
 7,-0.00011850,-0.00025015,-0.00009141,-0.00002856,0.00005401,0.0006831
 1,0.00016478,-0.00024005,0.00021385,0.00000467,0.00102267,-0.00601845,
 -0.00017244,-0.00044631,0.02276775,0.00049647,-0.00009377,0.00073784,-
 0.00032511,-0.00017746,0.00013033,-0.00094031,-0.00565250,0.00118318,0
 .00114274,-0.00917556,-0.02738555,0.00160005,-0.15825608,-0.13391248,-
 0.00002193,0.00953634,0.00859104,-0.00025284,-0.00080176,0.00275458,0.
 00002172,-0.00004735,-0.00008859,-0.00026619,-0.00024530,-0.00052566,-
 0.00022852,0.00010803,0.00014629,0.00015007,0.00008076,-0.00001805,0.0
 0030134,-0.00017899,-0.00161571,0.00017140,0.00102876,0.00075338,-0.00
 226716,0.16260372,-0.00075485,0.00047771,-0.00127753,0.00003289,0.0003
 0390,0.00004443,-0.00027435,0.00087892,0.00045053,-0.00012951,0.003763
 82,0.00531098,0.00819584,-0.13877740,-0.23970048,-0.00117781,-0.016168
 79,-0.00817095,0.00133431,0.00100315,-0.00363668,-0.00009283,0.0000384
 8,0.00006205,-0.00000246,-0.00004428,-0.00029074,0.00053871,-0.0001729
 2,-0.00017528,-0.00002633,-0.00004109,0.00007149,0.00021108,0.00000996
 ,0.00025761,-0.00044626,-0.00075366,0.00039432,-0.00678878,0.14983654,
 0.24553228,-0.00577927,0.02666419,-0.00487430,-0.00424529,0.00019027,0
 .00256973,-0.00198458,-0.00366166,-0.00146360,0.00086553,-0.00005553,0
 .00008452,-0.00013465,-0.00441432,0.00080177,-0.06796982,0.07262670,-0
 .01688811,0.00606774,-0.01481327,0.00635117,0.00041560,0.00008456,-0.0
 0037297,-0.00026962,0.00033971,0.00041841,0.00150050,-0.00111318,-0.00
 007561,-0.00019281,0.00115702,-0.00025575,0.00098000,-0.00079488,0.000
 45270,0.00021389,-0.00030122,0.00021119,-0.00002684,0.00024364,-0.0002
 0615,0.07048743,-0.00053615,-0.00183514,0.00046257,-0.00035675,0.00025
 840,-0.00028545,-0.00172412,-0.00318428,-0.00151950,0.00054767,-0.0005
 0222,0.00053916,0.00030302,-0.00337981,-0.00050044,0.07053148,-0.28334
 439,0.04827404,0.00702679,-0.01270121,0.00570157,0.00029365,0.00002138
 ,0.00012862,0.00033341,-0.00029988,-0.00007802,0.00038407,0.00051138,-
 0.00060056,0.00010147,-0.00021749,0.00009540,0.00079526,-0.00072142,0.
 00053356,-0.00000425,-0.00017845,-0.00000978,-0.00016162,0.00020067,0.
 00065834,-0.07748293,0.30478407,0.00131860,-0.00842446,0.00106793,0.00
 123596,-0.00184110,-0.00024643,-0.00108795,-0.00270929,-0.00236665,0.0
 0052482,0.00233631,-0.00637906,-0.00896152,0.02884965,-0.00076871,-0.0
 1560434,0.04752630,-0.05979403,0.00702580,-0.01279637,0.00409969,0.000
 15911,-0.00003086,0.00007760,0.00000602,-0.00022365,-0.00000125,-0.000
 39551,-0.00009899,0.00049278,0.00011372,-0.00055764,0.00010446,0.00045
 248,-0.00053297,0.00073228,0.00102248,0.00161600,0.00025703,0.00005055
 ,-0.00115694,0.00088312,0.01353567,-0.05324700,0.06102219,-0.00185151,
 0.00007042,-0.00211191,-0.00185190,-0.00007107,-0.00211238,-0.01093475
 ,-0.00195556,0.00330589,0.00143723,0.00086384,0.00092071,0.00143740,-0
 .00086326,0.00092088,-0.01093185,0.00195522,0.00330460,-0.29826910,-0.
 00000684,0.05357478,-0.00062639,-0.00021992,0.00050656,-0.00062626,0.0
 0022002,0.00050636,0.00004113,-0.00006044,0.00021891,0.00004117,0.0000
 6053,0.00021888,0.00026495,0.00047581,-0.00006248,-0.00006469,-0.00002
 040,-0.00016667,-0.00006471,0.00002033,-0.00016667,0.00026492,-0.00047
 584,-0.00006240,0.32440220,-0.00283089,-0.00254458,-0.00356300,0.00283
 048,-0.00254282,0.00356324,0.02372986,0.00127461,-0.00454860,0.0005076
 8,-0.00048187,-0.00111687,-0.00050792,-0.00048178,0.00111757,-0.023735
 34,0.00127405,0.00454879,-0.00000596,-0.04420887,0.00000008,0.00120903
 ,-0.00001046,-0.00095697,-0.00120940,-0.00001029,0.00095717,0.00020014
 ,-0.00001964,-0.00003723,-0.00020025,-0.00001958,0.00003736,-0.0006812
 5,0.00030624,-0.00071270,-0.00013978,0.00003767,0.00006985,0.00013980,
 0.00003763,-0.00006987,0.00068140,0.00030658,0.00071269,0.00000729,0.0
 4669090,-0.00149428,-0.00039323,-0.00110555,-0.00149534,0.00039356,-0.
 00110699,-0.01098262,-0.00157106,0.00052884,-0.00138326,0.00042875,0.0
 0113216,-0.00138299,-0.00042833,0.00113193,-0.01097420,0.00156939,0.00
 052663,0.05860287,0.00000040,-0.06293672,-0.00077826,0.00007673,0.0004
 6594,-0.00077781,-0.00007666,0.00046560,-0.00028224,-0.00018502,0.0002
 2808,-0.00028219,0.00018507,0.00022802,0.00044927,-0.00018333,0.000325
 55,0.00010813,0.00007840,0.00003818,0.00010809,-0.00007839,0.00003823,
 0.00044899,0.00018338,0.00032523,-0.05911870,-0.00000058,0.06475198,0.
 00007676,-0.00052980,-0.00080492,0.00007675,0.00052953,-0.00080526,0.0
 0079384,-0.00214404,-0.01186604,0.00028610,0.00209181,-0.00193422,0.00
 028674,-0.00209211,-0.00193327,0.00079316,0.00213963,-0.01186377,-0.05
 960204,0.00000649,0.04032616,0.00031318,0.00002653,0.00019804,0.000313
 18,-0.00002640,0.00019804,-0.00035605,-0.00029163,-0.00013227,-0.00035
 614,0.00029154,-0.00013233,0.00034623,-0.00016019,0.00049293,-0.000209
 78,-0.00035470,-0.00064892,-0.00020982,0.00035436,-0.00064891,0.000346
 11,0.00016037,0.00049280,-0.00230132,0.00000521,0.02951169,0.05917851,
 0.00108418,0.00032071,-0.00071035,-0.00108381,0.00032105,0.00071017,-0
 .00328691,0.00177620,0.02390590,0.00293734,-0.00293970,0.00154061,-0.0
 0293725,-0.00294118,-0.00154068,0.00328781,0.00176899,-0.02391168,0.00
 000576,-0.04709045,-0.00004279,-0.00000085,-0.00011640,-0.00007261,0.0
 0000088,-0.00011643,0.00007279,-0.00025504,0.00003812,0.00034053,0.000
 25481,0.00003818,-0.00034039,-0.00080271,0.00035328,-0.00051107,0.0000
 2898,0.00066325,0.00108541,-0.00002934,0.00066302,-0.00108591,0.000802
 69,0.00035341,0.00051111,0.00000003,-0.00006863,0.00000100,-0.00000662
 ,0.04703914,0.00100074,-0.00037763,-0.00005903,0.00100113,0.00037759,-
 0.00005944,0.00273557,-0.00208218,-0.01009129,-0.00090024,0.00077717,-
 0.00245156,-0.00089905,-0.00077707,-0.00245069,0.00273411,0.00207825,-
 0.01008324,0.03632456,-0.00004298,-0.29606866,-0.00009744,0.00015739,0
 .00031905,-0.00009741,-0.00015724,0.00031905,-0.00051180,-0.00028875,0
 .00050305,-0.00051190,0.00028886,0.00050312,-0.00003584,0.00046315,0.0
 0027822,-0.00067297,-0.00034475,-0.00049243,-0.00067301,0.00034425,-0.
 00049215,-0.00003608,-0.00046318,0.00027820,0.00094034,-0.00000084,-0.
 00505616,-0.04047892,0.00004788,0.32475373,-0.00137556,0.00064746,-0.0
 0126389,0.00690994,0.00962906,-0.02094196,0.00167214,-0.00073699,0.000
 98156,-0.00077217,-0.00089462,0.00033623,0.00027605,0.00102311,-0.0004
 2019,-0.00056772,0.00045346,0.00050357,0.00056772,-0.00000853,-0.00006
 296,-0.05671264,-0.02185431,0.04563456,-0.00279710,-0.00060603,0.00234
 820,-0.00002003,0.00063427,-0.00011729,-0.00210663,0.00093390,-0.00214
 207,-0.00006920,-0.00004284,-0.00000824,-0.00079143,0.00023557,0.00028
 664,-0.00011777,-0.00000090,0.00002144,-0.00015408,0.00000191,0.000155
 52,0.00001384,-0.00008942,0.00007239,0.00007574,-0.00003023,0.00015592
 ,0.05908110,0.00145632,-0.00168471,0.00015069,0.00373362,0.00068537,-0
 .00524116,0.00037019,0.00132398,0.00062478,-0.00008934,0.00035069,0.00
 035537,-0.00040229,-0.00035408,0.00011084,0.00016107,-0.00021695,0.000
 69270,0.00026761,-0.00015154,-0.00016841,-0.02228698,-0.09153810,0.095
 86283,-0.00866883,-0.00996858,0.02570991,0.00058265,-0.00008104,0.0003
 4822,-0.00116899,-0.00031046,-0.00091965,0.00034882,-0.00004501,-0.000
 17408,-0.00003623,0.00031736,-0.00009688,0.00005189,-0.00003818,-0.000
 05697,0.00008245,0.00000383,-0.00008913,0.00009452,0.00005627,0.000082
 07,-0.00002149,-0.00001534,-0.00003912,0.02289791,0.09671151,-0.001648
 59,0.00016056,-0.00053789,0.00439590,0.00525004,-0.01548876,0.00193009
 ,-0.00072191,0.00079170,0.00009219,0.00025436,0.00012602,0.00028693,-0
 .00028906,0.00037222,0.00039448,0.00049627,-0.00078429,0.00032707,0.00
 013811,-0.00010615,0.04594191,0.09673592,-0.25508088,-0.00130401,-0.00
 168089,0.00523507,-0.00014555,0.00042405,0.00017870,-0.00209485,0.0014
 2027,-0.00153248,-0.00034896,-0.00007716,0.00000926,0.00022664,-0.0002
 1221,0.00046757,0.00007974,-0.00002094,0.00003692,-0.00023203,-0.00001
 835,0.00007934,-0.00010918,-0.00009135,0.00013778,0.00000605,-0.000002
 53,0.00014466,-0.04995664,-0.10574712,0.27488541,-0.00038568,0.0001888
 4,-0.00132233,-0.01693685,0.00674460,0.01174931,-0.00109079,0.00202667
 ,-0.00251271,-0.00001833,-0.00008313,-0.00080449,0.00001440,-0.0001845
 3,0.00003318,-0.00007226,0.00000764,-0.00006518,-0.00130663,-0.0002650
 5,0.00043388,-0.23026781,0.08749322,0.08558893,0.00470391,-0.00243421,
 -0.00299450,-0.00007229,0.00052109,-0.00002776,0.00182499,-0.00089843,
 0.00031910,-0.00024995,-0.00012354,0.00000362,0.00006978,0.00000276,0.
 00004883,-0.00000724,0.00003923,0.00004511,-0.00006563,0.00009623,0.00
 002287,-0.00019713,0.00046266,-0.00021103,0.00003655,-0.00001787,-0.00
 006680,-0.00434261,0.00200035,0.00261910,0.24684165,-0.00017464,-0.001
 90790,0.00109461,-0.00483854,0.00105554,0.00448990,-0.00128018,0.00003
 481,-0.00068583,0.00005429,0.00002333,-0.00021866,-0.00019913,-0.00005
 470,0.00000464,0.00016595,0.00004928,0.00035983,-0.00037467,-0.0000214
 4,-0.00001831,0.08786000,-0.08803381,-0.04052766,0.02402918,-0.0111861
 7,-0.01375867,0.00068011,-0.00013654,0.00047415,0.00056661,0.00101211,
 0.00055470,-0.00016203,-0.00001597,-0.00001888,0.00004734,0.00006514,-
 0.00005459,-0.00003564,0.00002538,0.00004852,-0.00004867,-0.00001455,-
 0.00003668,-0.00008657,0.00017421,-0.00013236,0.00000645,-0.00001596,-
 0.00004144,-0.01160716,0.00643998,0.00450649,-0.09506936,0.09419971,-0
 .00003914,0.00082949,-0.00166157,-0.01759931,0.00700432,0.00869481,-0.
 00117984,0.00128045,-0.00204544,0.00061672,-0.00060592,-0.00035342,0.0
 0034823,0.00036957,-0.00009260,-0.00037628,0.00006050,0.00014713,-0.00
 084984,-0.00017201,0.00028521,0.08596232,-0.04036375,-0.08695194,0.001
 15334,0.00065249,-0.00220809,-0.00017573,0.00050287,-0.00010219,0.0006
 0565,-0.00066043,0.00181045,-0.00011281,-0.00002295,0.00004138,-0.0001
 6327,-0.00008647,0.00015308,-0.00000973,0.00002605,0.00004133,-0.00000
 786,0.00004554,0.00008573,-0.00019919,0.00027754,-0.00012829,0.0000085
 4,0.00001279,0.00003047,0.02429220,-0.01192419,-0.00996927,-0.09191187
 ,0.04336367,0.09085547,-0.01693595,-0.00674324,0.01175170,-0.00038571,
 -0.00018911,-0.00132220,-0.00007220,-0.00000768,-0.00006511,0.00001433
 ,0.00018459,0.00003311,-0.00001840,0.00008280,-0.00080453,-0.00109069,
 -0.00202763,-0.00251195,-0.00130668,0.00026504,0.00043375,0.00470703,0
 .00243547,-0.00299719,-0.23024621,-0.08748729,0.08560857,0.00182493,0.
 00089862,0.00031886,-0.00007214,-0.00052111,-0.00002749,-0.00006563,-0
 .00009622,0.00002289,-0.00000724,-0.00003921,0.00004513,0.00006979,-0.
 00000274,0.00004882,-0.00024999,0.00012351,0.00000357,-0.00019707,-0.0
 0046277,-0.00021088,0.00003655,0.00001785,-0.00006682,0.00023569,0.001
 25566,-0.00064983,0.00128617,-0.00074840,-0.00029748,0.24681796,0.0048
 3016,0.00105138,-0.00448572,0.00017472,-0.00190872,-0.00109482,-0.0001
 6609,0.00004910,-0.00035982,0.00019928,-0.00005478,-0.00000465,-0.0000
 5408,0.00002364,0.00021842,0.00127960,0.00003450,0.00068480,0.00037421
 ,-0.00002129,0.00001848,-0.02402664,-0.01118477,0.01376050,-0.08785391
 ,-0.08803352,0.04053907,-0.00056630,0.00101216,-0.00055439,-0.00068020
 ,-0.00013704,-0.00047416,0.00004866,-0.00001456,0.00003672,0.00003563,
 0.00002535,-0.00004850,-0.00004739,0.00006518,0.00005462,0.00016197,-0
 .00001592,0.00001891,0.00008645,0.00017411,0.00013222,-0.00000644,-0.0
 0001595,0.00004145,-0.00121444,-0.00436394,-0.00103565,0.00074811,0.00
 267166,0.00044000,0.09506322,0.09419958,-0.01760005,-0.00700456,0.0086
 9846,-0.00003924,-0.00082954,-0.00166101,-0.00037624,-0.00006055,0.000
 14726,0.00034831,-0.00036958,-0.00009248,0.00061674,0.00060594,-0.0003
 5372,-0.00118007,-0.00128134,-0.00204522,-0.00084999,0.00017201,0.0002
 8514,0.00116126,-0.00064953,-0.00221240,0.08598207,0.04037525,-0.08697
 474,0.00060582,0.00066080,0.00181039,-0.00017544,-0.00050292,-0.000101
 88,-0.00000788,-0.00004551,0.00008574,-0.00000976,-0.00002604,0.000041
 35,-0.00016327,0.00008649,0.00015303,-0.00011287,0.00002296,0.00004137
 ,-0.00019918,-0.00027767,-0.00012824,0.00000855,-0.00001277,0.00003046
 ,-0.00006440,0.00103103,0.00016741,-0.00029766,-0.00044055,0.00120033,
 -0.09193341,-0.04337637,0.09087969,0.00691204,-0.00963480,-0.02093939,
 -0.00137517,-0.00064767,-0.00126350,-0.00056761,-0.00045328,0.00050384
 ,0.00027596,-0.00102323,-0.00041983,-0.00077261,0.00089453,0.00033591,
 0.00167202,0.00073736,0.00098140,0.00056774,0.00000860,-0.00006297,-0.
 00279840,0.00060798,0.00235174,-0.05672086,0.02187621,0.04564613,-0.00
 210672,-0.00093487,-0.00214193,-0.00001985,-0.00063428,-0.00011701,-0.
 00015405,-0.00000187,0.00015551,-0.00011777,0.00000090,0.00002143,-0.0
 0079147,-0.00023563,0.00028672,-0.00006915,0.00004282,-0.00000827,0.00
 001384,0.00008944,0.00007236,0.00007574,0.00003030,0.00015590,0.000994
 71,-0.00062891,0.00018956,0.00023573,0.00121508,-0.00006465,-0.0043445
 5,0.01161348,0.02428670,0.05909041,-0.00373119,0.00068355,0.00523293,-
 0.00145671,-0.00168497,-0.00015040,-0.00016100,-0.00021745,-0.00069279
 ,0.00040254,-0.00035411,-0.00011065,0.00008918,0.00035062,-0.00035543,
 -0.00036953,0.00132406,-0.00062479,-0.00026740,-0.00015155,0.00016841,
 0.00867013,-0.00997525,-0.02570464,0.02230879,-0.09159389,-0.09590885,
 0.00116805,-0.00031058,0.00091898,-0.00058269,-0.00008145,-0.00034813,
 -0.00008254,0.00000387,0.00008918,-0.00005189,-0.00003817,0.00005701,0
 .00003621,0.00031746,0.00009695,-0.00034894,-0.00004496,0.00017409,-0.
 00009456,0.00005627,-0.00008203,0.00002150,-0.00001532,0.00003920,0.00
 062881,0.00287891,0.00051109,-0.00125528,-0.00436411,-0.00102956,-0.00
 200134,0.00644381,0.01192246,-0.02292217,0.09677327,0.00439809,-0.0052
 5480,-0.01548936,-0.00164797,-0.00016039,-0.00053780,0.00039453,-0.000
 49642,-0.00078387,0.00028693,0.00028933,0.00037215,0.00009232,-0.00025
 435,0.00012628,0.00193019,0.00072198,0.00079158,0.00032718,-0.00013805
 ,-0.00010615,-0.00130719,0.00168574,0.00524288,0.04595330,-0.09678200,
 -0.25501692,-0.00209513,-0.00142103,-0.00153237,-0.00014533,-0.0004239
 9,0.00017897,-0.00023200,0.00001835,0.00007931,0.00007975,0.00002098,0
 .00003690,0.00022663,0.00021232,0.00046749,-0.00034883,0.00007713,0.00
 000918,-0.00010916,0.00009137,0.00013778,0.00000604,0.00000258,0.00014
 465,0.00018942,-0.00051173,0.00086765,-0.00064959,0.00103712,0.0001674
 4,0.00262048,-0.00451111,-0.00997096,-0.04996965,0.10579697,0.27481519
 \\-0.00001462,0.00000718,0.00002240,-0.00001498,-0.00000779,0.00002273
 ,-0.00000957,-0.00000524,0.00000161,0.00002280,-0.00012554,-0.00003770
 ,0.00002177,0.00012495,-0.00003799,-0.00001012,0.00000585,0.00000211,-
 0.00001910,0.00000007,0.00003967,0.00003161,0.00001010,-0.00002180,0.0
 0003206,-0.00001003,-0.00002296,0.00000849,0.00001045,-0.00000231,0.00
 000835,-0.00001048,-0.00000255,-0.00000712,-0.00001425,-0.00001229,-0.
 00001012,0.00001193,0.00002056,-0.00001031,-0.00001195,0.00002057,-0.0
 0000734,0.00001439,-0.00001246,-0.00002309,0.00000011,0.00000104,-0.00
 001965,0.00000013,0.00000361,0.00000732,-0.00000986,0.00000396,0.00000
 292,-0.00001385,0.00000401,0.00000314,0.00001404,0.00000392,0.00000758
 ,0.00000976,0.00000386\\\@
 The archive entry for this job was punched.


 THE GREAT THING ABOUT BEING IMPERFECT IS THE JOY IT BRINGS OTHERS.
   -- SIGN OUTSIDE LAKE AGASSIZ JR. HIGH SCHOOL, FARGO, N.D.
 Job cpu time:       0 days  1 hours 27 minutes 26.8 seconds.
 Elapsed time:       0 days  0 hours  5 minutes 32.8 seconds.
 File lengths (MBytes):  RWF=    209 Int=      0 D2E=      0 Chk=     11 Scr=      1
 Normal termination of Gaussian 16 at Tue Sep  6 23:06:43 2022.
