Job Start Time: Tue Sep  6 22:58:28 MDT 2022
SLURM Job ID: 71232
SLURM Job Name: TS1_crest_conf_1
 Entering Gaussian System, Link 0=/opt/apps/Gaussian/G16C/g16/g16
 Initial command:
 /opt/apps/Gaussian/G16C/g16/l1.exe "/tmp/Gau-2852535.inp" -scrdir="/tmp/"
 Entering Link 1 = /opt/apps/Gaussian/G16C/g16/l1.exe PID=   2852536.
  
 Copyright (c) 1988-2019, Gaussian, Inc.  All Rights Reserved.
  
 This is part of the Gaussian(R) 16 program.  It is based on
 the Gaussian(R) 09 system (copyright 2009, Gaussian, Inc.),
 the Gaussian(R) 03 system (copyright 2003, Gaussian, Inc.),
 the Gaussian(R) 98 system (copyright 1998, Gaussian, Inc.),
 the Gaussian(R) 94 system (copyright 1995, Gaussian, Inc.),
 the Gaussian 92(TM) system (copyright 1992, Gaussian, Inc.),
 the Gaussian 90(TM) system (copyright 1990, Gaussian, Inc.),
 the Gaussian 88(TM) system (copyright 1988, Gaussian, Inc.),
 the Gaussian 86(TM) system (copyright 1986, Carnegie Mellon
 University), and the Gaussian 82(TM) system (copyright 1983,
 Carnegie Mellon University). Gaussian is a federally registered
 trademark of Gaussian, Inc.
  
 This software contains proprietary and confidential information,
 including trade secrets, belonging to Gaussian, Inc.
  
 This software is provided under written license and may be
 used, copied, transmitted, or stored only in accord with that
 written license.
  
 The following legend is applicable only to US Government
 contracts under FAR:
  
                    RESTRICTED RIGHTS LEGEND
  
 Use, reproduction and disclosure by the US Government is
 subject to restrictions as set forth in subparagraphs (a)
 and (c) of the Commercial Computer Software - Restricted
 Rights clause in FAR 52.227-19.
  
 Gaussian, Inc.
 340 Quinnipiac St., Bldg. 40, Wallingford CT 06492
  
  
 ---------------------------------------------------------------
 Warning -- This program may not be used in any manner that
 competes with the business of Gaussian, Inc. or will provide
 assistance to any competitor of Gaussian, Inc.  The licensee
 of this program is prohibited from giving any competitor of
 Gaussian, Inc. access to this program.  By using this program,
 the user acknowledges that Gaussian, Inc. is engaged in the
 business of creating and licensing software in the field of
 computational chemistry and represents and warrants to the
 licensee that it is not a competitor of Gaussian, Inc. and that
 it will not use this program in any manner prohibited above.
 ---------------------------------------------------------------
  

 Cite this work as:
 Gaussian 16, Revision C.01,
 M. J. Frisch, G. W. Trucks, H. B. Schlegel, G. E. Scuseria, 
 M. A. Robb, J. R. Cheeseman, G. Scalmani, V. Barone, 
 G. A. Petersson, H. Nakatsuji, X. Li, M. Caricato, A. V. Marenich, 
 J. Bloino, B. G. Janesko, R. Gomperts, B. Mennucci, H. P. Hratchian, 
 J. V. Ortiz, A. F. Izmaylov, J. L. Sonnenberg, D. Williams-Young, 
 F. Ding, F. Lipparini, F. Egidi, J. Goings, B. Peng, A. Petrone, 
 T. Henderson, D. Ranasinghe, V. G. Zakrzewski, J. Gao, N. Rega, 
 G. Zheng, W. Liang, M. Hada, M. Ehara, K. Toyota, R. Fukuda, 
 J. Hasegawa, M. Ishida, T. Nakajima, Y. Honda, O. Kitao, H. Nakai, 
 T. Vreven, K. Throssell, J. A. Montgomery, Jr., J. E. Peralta, 
 F. Ogliaro, M. J. Bearpark, J. J. Heyd, E. N. Brothers, K. N. Kudin, 
 V. N. Staroverov, T. A. Keith, R. Kobayashi, J. Normand, 
 K. Raghavachari, A. P. Rendell, J. C. Burant, S. S. Iyengar, 
 J. Tomasi, M. Cossi, J. M. Millam, M. Klene, C. Adamo, R. Cammi, 
 J. W. Ochterski, R. L. Martin, K. Morokuma, O. Farkas, 
 J. B. Foresman, and D. J. Fox, Gaussian, Inc., Wallingford CT, 2019.
 
 ******************************************
 Gaussian 16:  AS64L-G16RevC.01  3-Jul-2019
                 6-Sep-2022 
 ******************************************
 %nprocshared=16
 Will use up to   16 processors via shared memory.
 %mem=72GB
 ---------------------------------------------
 # B3LYP/def2tzvp opt=(ts,calcfc,noeigen) freq
 ---------------------------------------------
 1/5=1,10=4,11=1,18=20,26=3,38=1/1,3;
 2/9=110,12=2,17=6,18=5,40=1/2;
 3/5=44,7=101,11=2,25=1,30=1,71=2,74=-5,140=1/1,2,3;
 4//1;
 5/5=2,38=5/2;
 8/6=4,10=90,11=11/1;
 11/6=1,8=1,9=11,15=111,16=1/1,2,10;
 10/6=1,13=1/2;
 6/7=2,8=2,9=2,10=2,28=1/1;
 7/10=1,25=1/1,2,3,16;
 1/5=1,10=4,11=1,18=20,26=3/3(2);
 2/9=110/2;
 99//99;
 2/9=110/2;
 3/5=44,7=101,11=2,25=1,30=1,71=1,74=-5/1,2,3;
 4/5=5,16=3,69=1/1;
 5/5=2,38=5/2;
 7//1,2,3,16;
 1/5=1,11=1,18=20,26=3/3(-5);
 2/9=110/2;
 6/7=2,8=2,9=2,10=2,19=2,28=1/1;
 99/9=1/99;
 ----------------
 TS1_crest_conf_1
 ----------------
 Symbolic Z-matrix:
 Charge =  0 Multiplicity = 1
 C                    -0.8713   -0.2565   -1.1524 
 C                    -0.9557    1.0291   -0.7097 
 C                    -0.9555    1.0294    0.7095 
 C                    -0.8708   -0.2561    1.1526 
 C                    -1.1374   -1.1748    0.0003 
 C                     1.4106   -0.5232    0.6643 
 C                     1.4103   -0.523    -0.6647 
 C                     1.908     0.7148    0. 
 H                    -0.9204   -0.5759   -2.1786 
 H                    -0.9297    1.9126   -1.3231 
 H                    -0.9293    1.9132    1.3224 
 H                    -0.9196   -0.5749    2.1789 
 H                    -0.5749   -2.1046    0.0004 
 H                    -2.2037   -1.4343    0.0006 
 H                     1.4837   -1.0782    1.5661 
 H                     1.4838   -1.0779   -1.5665 
 H                     2.9695    0.9466   -0.0003 
 H                     1.2771    1.5996    0.0004 
 
 Add virtual bond connecting atoms C6         and C4         Dist= 4.44D+00.
 Add virtual bond connecting atoms C7         and C1         Dist= 4.44D+00.
 Add virtual bond connecting atoms H18        and C2         Dist= 4.56D+00.
 Add virtual bond connecting atoms H18        and C3         Dist= 4.56D+00.

 GradGradGradGradGradGradGradGradGradGradGradGradGradGradGradGradGradGrad
 Berny optimization.
 Initialization pass.
                           ----------------------------
                           !    Initial Parameters    !
                           ! (Angstroms and Degrees)  !
 --------------------------                            --------------------------
 ! Name  Definition              Value          Derivative Info.                !
 --------------------------------------------------------------------------------
 ! R1    R(1,2)                  1.3623         calculate D2E/DX2 analytically  !
 ! R2    R(1,5)                  1.4976         calculate D2E/DX2 analytically  !
 ! R3    R(1,7)                  2.3483         calculate D2E/DX2 analytically  !
 ! R4    R(1,9)                  1.0759         calculate D2E/DX2 analytically  !
 ! R5    R(2,3)                  1.4192         calculate D2E/DX2 analytically  !
 ! R6    R(2,10)                 1.0759         calculate D2E/DX2 analytically  !
 ! R7    R(2,18)                 2.4115         calculate D2E/DX2 analytically  !
 ! R8    R(3,4)                  1.3624         calculate D2E/DX2 analytically  !
 ! R9    R(3,11)                 1.0758         calculate D2E/DX2 analytically  !
 ! R10   R(3,18)                 2.4109         calculate D2E/DX2 analytically  !
 ! R11   R(4,5)                  1.4976         calculate D2E/DX2 analytically  !
 ! R12   R(4,6)                  2.3483         calculate D2E/DX2 analytically  !
 ! R13   R(4,12)                 1.0758         calculate D2E/DX2 analytically  !
 ! R14   R(5,13)                 1.0867         calculate D2E/DX2 analytically  !
 ! R15   R(5,14)                 1.0974         calculate D2E/DX2 analytically  !
 ! R16   R(6,7)                  1.329          calculate D2E/DX2 analytically  !
 ! R17   R(6,8)                  1.4904         calculate D2E/DX2 analytically  !
 ! R18   R(6,15)                 1.0614         calculate D2E/DX2 analytically  !
 ! R19   R(7,8)                  1.4905         calculate D2E/DX2 analytically  !
 ! R20   R(7,16)                 1.0614         calculate D2E/DX2 analytically  !
 ! R21   R(8,17)                 1.0865         calculate D2E/DX2 analytically  !
 ! R22   R(8,18)                 1.0867         calculate D2E/DX2 analytically  !
 ! A1    A(2,1,5)              108.5132         calculate D2E/DX2 analytically  !
 ! A2    A(2,1,7)               95.7277         calculate D2E/DX2 analytically  !
 ! A3    A(2,1,9)              125.9649         calculate D2E/DX2 analytically  !
 ! A4    A(5,1,7)               86.7437         calculate D2E/DX2 analytically  !
 ! A5    A(5,1,9)              122.9572         calculate D2E/DX2 analytically  !
 ! A6    A(7,1,9)              102.0486         calculate D2E/DX2 analytically  !
 ! A7    A(1,2,3)              108.975          calculate D2E/DX2 analytically  !
 ! A8    A(1,2,10)             126.0281         calculate D2E/DX2 analytically  !
 ! A9    A(1,2,18)             105.1642         calculate D2E/DX2 analytically  !
 ! A10   A(3,2,10)             124.7477         calculate D2E/DX2 analytically  !
 ! A11   A(10,2,18)             87.2049         calculate D2E/DX2 analytically  !
 ! A12   A(2,3,4)              108.9688         calculate D2E/DX2 analytically  !
 ! A13   A(2,3,11)             124.7412         calculate D2E/DX2 analytically  !
 ! A14   A(4,3,11)             126.0398         calculate D2E/DX2 analytically  !
 ! A15   A(4,3,18)             105.1445         calculate D2E/DX2 analytically  !
 ! A16   A(11,3,18)             87.1751         calculate D2E/DX2 analytically  !
 ! A17   A(3,4,5)              108.5126         calculate D2E/DX2 analytically  !
 ! A18   A(3,4,6)               95.7446         calculate D2E/DX2 analytically  !
 ! A19   A(3,4,12)             125.9507         calculate D2E/DX2 analytically  !
 ! A20   A(5,4,6)               86.7427         calculate D2E/DX2 analytically  !
 ! A21   A(5,4,12)             122.9676         calculate D2E/DX2 analytically  !
 ! A22   A(6,4,12)             102.0483         calculate D2E/DX2 analytically  !
 ! A23   A(1,5,4)              100.6285         calculate D2E/DX2 analytically  !
 ! A24   A(1,5,13)             115.6418         calculate D2E/DX2 analytically  !
 ! A25   A(1,5,14)             108.533          calculate D2E/DX2 analytically  !
 ! A26   A(4,5,13)             115.6358         calculate D2E/DX2 analytically  !
 ! A27   A(4,5,14)             108.5307         calculate D2E/DX2 analytically  !
 ! A28   A(13,5,14)            107.4947         calculate D2E/DX2 analytically  !
 ! A29   A(4,6,7)              101.9876         calculate D2E/DX2 analytically  !
 ! A30   A(4,6,8)              108.8096         calculate D2E/DX2 analytically  !
 ! A31   A(4,6,15)              87.1177         calculate D2E/DX2 analytically  !
 ! A32   A(7,6,15)             148.1802         calculate D2E/DX2 analytically  !
 ! A33   A(8,6,15)             142.1884         calculate D2E/DX2 analytically  !
 ! A34   A(1,7,6)              102.0003         calculate D2E/DX2 analytically  !
 ! A35   A(1,7,8)              108.832          calculate D2E/DX2 analytically  !
 ! A36   A(1,7,16)              87.1431         calculate D2E/DX2 analytically  !
 ! A37   A(6,7,16)             148.1619         calculate D2E/DX2 analytically  !
 ! A38   A(8,7,16)             142.1789         calculate D2E/DX2 analytically  !
 ! A39   A(6,8,17)             120.224          calculate D2E/DX2 analytically  !
 ! A40   A(6,8,18)             118.8422         calculate D2E/DX2 analytically  !
 ! A41   A(7,8,17)             120.2163         calculate D2E/DX2 analytically  !
 ! A42   A(7,8,18)             118.8465         calculate D2E/DX2 analytically  !
 ! A43   A(17,8,18)            113.1722         calculate D2E/DX2 analytically  !
 ! A44   A(2,18,8)             110.1709         calculate D2E/DX2 analytically  !
 ! A45   A(3,18,8)             110.1922         calculate D2E/DX2 analytically  !
 ! D1    D(5,1,2,3)             13.2676         calculate D2E/DX2 analytically  !
 ! D2    D(5,1,2,10)          -172.27           calculate D2E/DX2 analytically  !
 ! D3    D(5,1,2,18)            89.9921         calculate D2E/DX2 analytically  !
 ! D4    D(7,1,2,3)            -75.2072         calculate D2E/DX2 analytically  !
 ! D5    D(7,1,2,10)            99.2552         calculate D2E/DX2 analytically  !
 ! D6    D(7,1,2,18)             1.5173         calculate D2E/DX2 analytically  !
 ! D7    D(9,1,2,3)            175.404          calculate D2E/DX2 analytically  !
 ! D8    D(9,1,2,10)           -10.1336         calculate D2E/DX2 analytically  !
 ! D9    D(9,1,2,18)          -107.8715         calculate D2E/DX2 analytically  !
 ! D10   D(2,1,5,4)            -19.8755         calculate D2E/DX2 analytically  !
 ! D11   D(2,1,5,13)          -145.2115         calculate D2E/DX2 analytically  !
 ! D12   D(2,1,5,14)            93.9503         calculate D2E/DX2 analytically  !
 ! D13   D(7,1,5,4)             75.0791         calculate D2E/DX2 analytically  !
 ! D14   D(7,1,5,13)           -50.2569         calculate D2E/DX2 analytically  !
 ! D15   D(7,1,5,14)          -171.0951         calculate D2E/DX2 analytically  !
 ! D16   D(9,1,5,4)            177.3357         calculate D2E/DX2 analytically  !
 ! D17   D(9,1,5,13)            51.9997         calculate D2E/DX2 analytically  !
 ! D18   D(9,1,5,14)           -68.8385         calculate D2E/DX2 analytically  !
 ! D19   D(2,1,7,6)             69.2034         calculate D2E/DX2 analytically  !
 ! D20   D(2,1,7,8)              3.3548         calculate D2E/DX2 analytically  !
 ! D21   D(2,1,7,16)          -141.5926         calculate D2E/DX2 analytically  !
 ! D22   D(5,1,7,6)            -39.0926         calculate D2E/DX2 analytically  !
 ! D23   D(5,1,7,8)           -104.9412         calculate D2E/DX2 analytically  !
 ! D24   D(5,1,7,16)           110.1114         calculate D2E/DX2 analytically  !
 ! D25   D(9,1,7,6)           -162.1188         calculate D2E/DX2 analytically  !
 ! D26   D(9,1,7,8)            132.0327         calculate D2E/DX2 analytically  !
 ! D27   D(9,1,7,16)           -12.9148         calculate D2E/DX2 analytically  !
 ! D28   D(1,2,3,4)              0.0075         calculate D2E/DX2 analytically  !
 ! D29   D(1,2,3,11)           174.5482         calculate D2E/DX2 analytically  !
 ! D30   D(10,2,3,4)          -174.5424         calculate D2E/DX2 analytically  !
 ! D31   D(10,2,3,11)           -0.0017         calculate D2E/DX2 analytically  !
 ! D32   D(1,2,18,8)            -9.0696         calculate D2E/DX2 analytically  !
 ! D33   D(10,2,18,8)         -135.7175         calculate D2E/DX2 analytically  !
 ! D34   D(2,3,4,5)            -13.2792         calculate D2E/DX2 analytically  !
 ! D35   D(2,3,4,6)             75.2001         calculate D2E/DX2 analytically  !
 ! D36   D(2,3,4,12)          -175.4031         calculate D2E/DX2 analytically  !
 ! D37   D(11,3,4,5)           172.269          calculate D2E/DX2 analytically  !
 ! D38   D(11,3,4,6)           -99.2517         calculate D2E/DX2 analytically  !
 ! D39   D(11,3,4,12)           10.1451         calculate D2E/DX2 analytically  !
 ! D40   D(18,3,4,5)           -90.0425         calculate D2E/DX2 analytically  !
 ! D41   D(18,3,4,6)            -1.5632         calculate D2E/DX2 analytically  !
 ! D42   D(18,3,4,12)          107.8336         calculate D2E/DX2 analytically  !
 ! D43   D(4,3,18,8)             9.1449         calculate D2E/DX2 analytically  !
 ! D44   D(11,3,18,8)          135.7932         calculate D2E/DX2 analytically  !
 ! D45   D(3,4,5,1)             19.8801         calculate D2E/DX2 analytically  !
 ! D46   D(3,4,5,13)           145.2202         calculate D2E/DX2 analytically  !
 ! D47   D(3,4,5,14)           -93.9474         calculate D2E/DX2 analytically  !
 ! D48   D(6,4,5,1)            -75.092          calculate D2E/DX2 analytically  !
 ! D49   D(6,4,5,13)            50.2481         calculate D2E/DX2 analytically  !
 ! D50   D(6,4,5,14)           171.0805         calculate D2E/DX2 analytically  !
 ! D51   D(12,4,5,1)          -177.3483         calculate D2E/DX2 analytically  !
 ! D52   D(12,4,5,13)          -52.0083         calculate D2E/DX2 analytically  !
 ! D53   D(12,4,5,14)           68.8241         calculate D2E/DX2 analytically  !
 ! D54   D(3,4,6,7)            -69.164          calculate D2E/DX2 analytically  !
 ! D55   D(3,4,6,8)             -3.3115         calculate D2E/DX2 analytically  !
 ! D56   D(3,4,6,15)           141.6244         calculate D2E/DX2 analytically  !
 ! D57   D(5,4,6,7)             39.1309         calculate D2E/DX2 analytically  !
 ! D58   D(5,4,6,8)            104.9833         calculate D2E/DX2 analytically  !
 ! D59   D(5,4,6,15)          -110.0808         calculate D2E/DX2 analytically  !
 ! D60   D(12,4,6,7)           162.1675         calculate D2E/DX2 analytically  !
 ! D61   D(12,4,6,8)          -131.9801         calculate D2E/DX2 analytically  !
 ! D62   D(12,4,6,15)           12.9559         calculate D2E/DX2 analytically  !
 ! D63   D(4,6,7,1)             -0.0184         calculate D2E/DX2 analytically  !
 ! D64   D(4,6,7,16)          -104.2432         calculate D2E/DX2 analytically  !
 ! D65   D(15,6,7,1)           104.1452         calculate D2E/DX2 analytically  !
 ! D66   D(15,6,7,16)           -0.0796         calculate D2E/DX2 analytically  !
 ! D67   D(4,6,8,17)           158.8123         calculate D2E/DX2 analytically  !
 ! D68   D(4,6,8,18)            11.5956         calculate D2E/DX2 analytically  !
 ! D69   D(15,6,8,17)           48.1852         calculate D2E/DX2 analytically  !
 ! D70   D(15,6,8,18)          -99.0316         calculate D2E/DX2 analytically  !
 ! D71   D(1,7,8,17)          -158.796          calculate D2E/DX2 analytically  !
 ! D72   D(1,7,8,18)           -11.5858         calculate D2E/DX2 analytically  !
 ! D73   D(16,7,8,17)          -48.0965         calculate D2E/DX2 analytically  !
 ! D74   D(16,7,8,18)           99.1138         calculate D2E/DX2 analytically  !
 ! D75   D(6,8,18,2)           -48.8908         calculate D2E/DX2 analytically  !
 ! D76   D(6,8,18,3)           -12.3446         calculate D2E/DX2 analytically  !
 ! D77   D(7,8,18,2)            12.3008         calculate D2E/DX2 analytically  !
 ! D78   D(7,8,18,3)            48.847          calculate D2E/DX2 analytically  !
 ! D79   D(17,8,18,2)          161.7007         calculate D2E/DX2 analytically  !
 ! D80   D(17,8,18,3)         -161.7531         calculate D2E/DX2 analytically  !
 --------------------------------------------------------------------------------
 Trust Radius=3.00D-01 FncErr=1.00D-07 GrdErr=1.00D-06 EigMax=2.50D+02 EigMin=1.00D-04
 Number of steps in this run=    108 maximum allowed number of steps=    108.
 Search for a saddle point of order  1.
 GradGradGradGradGradGradGradGradGradGradGradGradGradGradGradGradGradGrad

                          Input orientation:                          
 ---------------------------------------------------------------------
 Center     Atomic      Atomic             Coordinates (Angstroms)
 Number     Number       Type             X           Y           Z
 ---------------------------------------------------------------------
      1          6           0       -0.871300   -0.256500   -1.152400
      2          6           0       -0.955700    1.029100   -0.709700
      3          6           0       -0.955500    1.029400    0.709500
      4          6           0       -0.870800   -0.256100    1.152600
      5          6           0       -1.137400   -1.174800    0.000300
      6          6           0        1.410600   -0.523200    0.664300
      7          6           0        1.410300   -0.523000   -0.664700
      8          6           0        1.908000    0.714800    0.000000
      9          1           0       -0.920400   -0.575900   -2.178600
     10          1           0       -0.929700    1.912600   -1.323100
     11          1           0       -0.929300    1.913200    1.322400
     12          1           0       -0.919600   -0.574900    2.178900
     13          1           0       -0.574900   -2.104600    0.000400
     14          1           0       -2.203700   -1.434300    0.000600
     15          1           0        1.483700   -1.078200    1.566100
     16          1           0        1.483800   -1.077900   -1.566500
     17          1           0        2.969500    0.946600   -0.000300
     18          1           0        1.277100    1.599600    0.000400
 ---------------------------------------------------------------------
                    Distance matrix (angstroms):
                    1          2          3          4          5
     1  C    0.000000
     2  C    1.362305   0.000000
     3  C    2.264354   1.419200   0.000000
     4  C    2.305000   2.264312   1.362359   0.000000
     5  C    1.497599   2.322561   2.322617   1.497625   0.000000
     6  C    2.928924   3.145932   2.830378   2.348311   2.712523
     7  C    2.348313   2.830017   3.145692   2.928691   2.712535
     8  C    3.161638   2.967025   2.966816   3.161149   3.583999
     9  H    1.075878   2.175991   3.304443   3.346883   2.270105
    10  H    2.176590   1.075875   2.216342   3.291781   3.365496
    11  H    3.291747   2.216249   1.075842   2.176722   3.365561
    12  H    3.346830   3.304259   2.175823   1.075782   2.270157
    13  H    2.198243   3.235634   3.235682   2.198198   1.086708
    14  H    2.119413   2.851380   2.851379   2.119406   1.097422
    15  H    3.689371   3.945966   3.335482   2.527944   3.054706
    16  H    2.528374   3.335373   3.946020   3.689580   3.055314
    17  H    4.186470   3.989643   3.989523   4.186116   4.622442
    18  H    3.064258   2.411454   2.410903   3.063440   3.677921
                    6          7          8          9         10
     6  C    0.000000
     7  C    1.329000   0.000000
     8  C    1.490418   1.490530   0.000000
     9  H    3.676740   2.779722   3.796321   0.000000
    10  H    3.919169   3.441110   3.352292   2.631463   0.000000
    11  H    3.441551   3.918847   3.351891   4.295660   2.645500
    12  H    2.779662   3.676573   3.795557   4.357500   4.295551
    13  H    2.623700   2.623897   3.756835   2.684089   4.244459
    14  H    3.785996   3.786039   4.639473   2.670697   3.817983
    15  H    1.061420   2.300022   2.418171   4.478256   4.808000
    16  H    2.299895   1.061395   2.418190   2.531175   3.850625
    17  H    2.243251   2.243269   1.086514   4.711085   4.229269
    18  H    2.228198   2.228347   1.086695   3.782836   2.592217
                   11         12         13         14         15
    11  H    0.000000
    12  H    2.631412   0.000000
    13  H    4.244526   2.684150   0.000000
    14  H    3.817985   2.670669   1.761332   0.000000
    15  H    3.851030   2.530748   2.782579   4.021755   0.000000
    16  H    4.807855   4.478545   2.783439   4.022497   3.132600
    17  H    4.229006   4.710517   4.676814   5.694794   2.959903
    18  H    2.591183   3.781508   4.141377   4.617415   3.108812
                   16         17         18
    16  H    0.000000
    17  H    2.959542   0.000000
    18  H    3.109165   1.814009   0.000000
 Stoichiometry    C8H10
 Framework group  C1[X(C8H10)]
 Deg. of freedom    48
 Full point group                 C1      NOp   1
 Largest Abelian subgroup         C1      NOp   1
 Largest concise Abelian subgroup C1      NOp   1
                         Standard orientation:                         
 ---------------------------------------------------------------------
 Center     Atomic      Atomic             Coordinates (Angstroms)
 Number     Number       Type             X           Y           Z
 ---------------------------------------------------------------------
      1          6           0       -0.886122   -0.221038   -1.152328
      2          6           0       -0.924217    1.066895   -0.710003
      3          6           0       -0.924001    1.067601    0.709197
      4          6           0       -0.885601   -0.219985    1.152672
      5          6           0       -1.185082   -1.128835    0.000638
      6          6           0        1.384712   -0.569128    0.664466
      7          6           0        1.384415   -0.569304   -0.664534
      8          6           0        1.926325    0.649983   -0.000191
      9          1           0       -0.946684   -0.538764   -2.178435
     10          1           0       -0.866452    1.948709   -1.323660
     11          1           0       -0.866022    1.950065    1.321840
     12          1           0       -0.945834   -0.536524    2.179065
     13          1           0       -0.656396   -2.078269    0.001013
     14          1           0       -2.260027   -1.349807    0.001006
     15          1           0        1.437802   -1.126136    1.566428
     16          1           0        1.437902   -1.126752   -1.566171
     17          1           0        2.995477    0.843446   -0.000551
     18          1           0        1.327664    1.556907   -0.000053
 ---------------------------------------------------------------------
 Rotational constants (GHZ):           3.3857525           2.0769841           2.0428488
 Standard basis: def2TZVP (5D, 7F)
 There are   348 symmetry adapted cartesian basis functions of A   symmetry.
 There are   308 symmetry adapted basis functions of A   symmetry.
   308 basis functions,   488 primitive gaussians,   348 cartesian basis functions
    29 alpha electrons       29 beta electrons
       nuclear repulsion energy       360.0209774916 Hartrees.
 NAtoms=   18 NActive=   18 NUniq=   18 SFac= 1.00D+00 NAtFMM=   60 NAOKFM=F Big=F
 Integral buffers will be    131072 words long.
 Raffenetti 2 integral format.
 Two-electron integral symmetry is turned on.
 One-electron integrals computed using PRISM.
   1 Symmetry operations used in ECPInt.
 ECPInt:  NShTT=    8256 NPrTT=   24516 LenC2=    8191 LenP2D=   20096.
 LDataN:  DoStor=T MaxTD1= 6 Len=  172
 NBasis=   308 RedAO= T EigKep=  3.99D-05  NBF=   308
 NBsUse=   308 1.00D-06 EigRej= -1.00D+00 NBFU=   308
 ExpMin= 9.52D-02 ExpMax= 1.36D+04 ExpMxC= 4.63D+02 IAcc=3 IRadAn=         5 AccDes= 0.00D+00
 Harris functional with IExCor=  402 and IRadAn=       5 diagonalized for initial guess.
 HarFok:  IExCor=  402 AccDes= 0.00D+00 IRadAn=         5 IDoV= 1 UseB2=F ITyADJ=14
 ICtDFT=  3500011 ScaDFX=  1.000000  1.000000  1.000000  1.000000
 FoFCou: FMM=F IPFlag=           0 FMFlag=      100000 FMFlg1=           0
         NFxFlg=           0 DoJE=T BraDBF=F KetDBF=T FulRan=T
         wScrn=  0.000000 ICntrl=       500 IOpCl=  0 I1Cent=   200000004 NGrid=           0
         NMat0=    1 NMatS0=      1 NMatT0=    0 NMatD0=    1 NMtDS0=    0 NMtDT0=    0
 Petite list used in FoFCou.
 Requested convergence on RMS density matrix=1.00D-08 within 128 cycles.
 Requested convergence on MAX density matrix=1.00D-06.
 Requested convergence on             energy=1.00D-06.
 No special actions if energy rises.
 Integral accuracy reduced to 1.0D-05 until final iterations.
 Initial convergence to 1.0D-05 achieved.  Increase integral accuracy.
 SCF Done:  E(RB3LYP) =  -310.818866039     A.U. after   14 cycles
            NFock= 14  Conv=0.57D-08     -V/T= 2.0047
 DoSCS=F DFT=T ScalE2(SS,OS)=  1.000000  1.000000
 Range of M.O.s used for correlation:     1   308
 NBasis=   308 NAE=    29 NBE=    29 NFC=     0 NFV=     0
 NROrb=    308 NOA=    29 NOB=    29 NVA=   279 NVB=   279

 **** Warning!!: The largest alpha MO coefficient is  0.36015431D+02

   1 Symmetry operations used in ECPInt.
 ECPInt:  NShTT=    8256 NPrTT=   24516 LenC2=    8191 LenP2D=   20096.
 LDataN:  DoStor=T MaxTD1= 7 Len=  274
 Symmetrizing basis deriv contribution to polar:
 IMax=3 JMax=2 DiffMx= 0.00D+00
 G2DrvN: will do    19 centers at a time, making    1 passes.
 Calling FoFCou, ICntrl=  3107 FMM=F I1Cent=   0 AccDes= 0.00D+00.
 End of G2Drv F.D. properties file   721 does not exist.
 End of G2Drv F.D. properties file   722 does not exist.
 End of G2Drv F.D. properties file   788 does not exist.
          IDoAtm=111111111111111111
          Differentiating once with respect to nuclear coordinates.
 Keep R1 ints in memory in canonical form, NReq=1153501752.
          There are    57 degrees of freedom in the 1st order CPHF.  IDoFFX=6 NUNeed=     0.
     51 vectors produced by pass  0 Test12= 1.42D-14 1.75D-09 XBig12= 1.14D-01 1.04D-01.
 AX will form    51 AO Fock derivatives at one time.
     51 vectors produced by pass  1 Test12= 1.42D-14 1.75D-09 XBig12= 1.69D-02 3.39D-02.
     51 vectors produced by pass  2 Test12= 1.42D-14 1.75D-09 XBig12= 2.13D-04 2.20D-03.
     51 vectors produced by pass  3 Test12= 1.42D-14 1.75D-09 XBig12= 6.37D-07 1.22D-04.
     51 vectors produced by pass  4 Test12= 1.42D-14 1.75D-09 XBig12= 1.38D-09 6.26D-06.
     49 vectors produced by pass  5 Test12= 1.42D-14 1.75D-09 XBig12= 2.68D-12 2.20D-07.
     13 vectors produced by pass  6 Test12= 1.42D-14 1.75D-09 XBig12= 4.34D-15 8.47D-09.
 InvSVY:  IOpt=1 It=  1 EMax= 6.11D-16
 Solved reduced A of dimension   317 with    57 vectors.
 End of Minotr F.D. properties file   721 does not exist.
 End of Minotr F.D. properties file   722 does not exist.
 End of Minotr F.D. properties file   788 does not exist.

 **********************************************************************

            Population analysis using the SCF Density.

 **********************************************************************

 Orbital symmetries:
       Occupied  (A) (A) (A) (A) (A) (A) (A) (A) (A) (A) (A) (A)
                 (A) (A) (A) (A) (A) (A) (A) (A) (A) (A) (A) (A)
                 (A) (A) (A) (A) (A)
       Virtual   (A) (A) (A) (A) (A) (A) (A) (A) (A) (A) (A) (A)
                 (A) (A) (A) (A) (A) (A) (A) (A) (A) (A) (A) (A)
                 (A) (A) (A) (A) (A) (A) (A) (A) (A) (A) (A) (A)
                 (A) (A) (A) (A) (A) (A) (A) (A) (A) (A) (A) (A)
                 (A) (A) (A) (A) (A) (A) (A) (A) (A) (A) (A) (A)
                 (A) (A) (A) (A) (A) (A) (A) (A) (A) (A) (A) (A)
                 (A) (A) (A) (A) (A) (A) (A) (A) (A) (A) (A) (A)
                 (A) (A) (A) (A) (A) (A) (A) (A) (A) (A) (A) (A)
                 (A) (A) (A) (A) (A) (A) (A) (A) (A) (A) (A) (A)
                 (A) (A) (A) (A) (A) (A) (A) (A) (A) (A) (A) (A)
                 (A) (A) (A) (A) (A) (A) (A) (A) (A) (A) (A) (A)
                 (A) (A) (A) (A) (A) (A) (A) (A) (A) (A) (A) (A)
                 (A) (A) (A) (A) (A) (A) (A) (A) (A) (A) (A) (A)
                 (A) (A) (A) (A) (A) (A) (A) (A) (A) (A) (A) (A)
                 (A) (A) (A) (A) (A) (A) (A) (A) (A) (A) (A) (A)
                 (A) (A) (A) (A) (A) (A) (A) (A) (A) (A) (A) (A)
                 (A) (A) (A) (A) (A) (A) (A) (A) (A) (A) (A) (A)
                 (A) (A) (A) (A) (A) (A) (A) (A) (A) (A) (A) (A)
                 (A) (A) (A) (A) (A) (A) (A) (A) (A) (A) (A) (A)
                 (A) (A) (A) (A) (A) (A) (A) (A) (A) (A) (A) (A)
                 (A) (A) (A) (A) (A) (A) (A) (A) (A) (A) (A) (A)
                 (A) (A) (A) (A) (A) (A) (A) (A) (A) (A) (A) (A)
                 (A) (A) (A) (A) (A) (A) (A) (A) (A) (A) (A) (A)
                 (A) (A) (A)
 The electronic state is 1-A.
 Alpha  occ. eigenvalues --  -10.17654 -10.17559 -10.17463 -10.17462 -10.17239
 Alpha  occ. eigenvalues --  -10.16832 -10.16427 -10.16380  -0.87988  -0.84904
 Alpha  occ. eigenvalues --   -0.71079  -0.70740  -0.59304  -0.56454  -0.55663
 Alpha  occ. eigenvalues --   -0.52895  -0.52389  -0.49687  -0.46370  -0.41339
 Alpha  occ. eigenvalues --   -0.39612  -0.38076  -0.37112  -0.35918  -0.33327
 Alpha  occ. eigenvalues --   -0.29925  -0.29581  -0.23364  -0.23137
 Alpha virt. eigenvalues --   -0.01219   0.00731   0.04620   0.06432   0.06448
 Alpha virt. eigenvalues --    0.07561   0.08051   0.09036   0.09904   0.10346
 Alpha virt. eigenvalues --    0.12269   0.13781   0.14025   0.14229   0.15449
 Alpha virt. eigenvalues --    0.17293   0.17863   0.18468   0.20012   0.20921
 Alpha virt. eigenvalues --    0.21280   0.21582   0.24011   0.24736   0.26258
 Alpha virt. eigenvalues --    0.29152   0.30666   0.31939   0.34083   0.34751
 Alpha virt. eigenvalues --    0.34759   0.36526   0.37012   0.39310   0.39593
 Alpha virt. eigenvalues --    0.39867   0.40969   0.41180   0.41202   0.41998
 Alpha virt. eigenvalues --    0.43787   0.44593   0.45086   0.45614   0.45620
 Alpha virt. eigenvalues --    0.45952   0.46542   0.47816   0.49840   0.51145
 Alpha virt. eigenvalues --    0.53752   0.53891   0.54180   0.55256   0.57182
 Alpha virt. eigenvalues --    0.58111   0.59610   0.62616   0.64069   0.67091
 Alpha virt. eigenvalues --    0.67138   0.73514   0.76098   0.76424   0.78263
 Alpha virt. eigenvalues --    0.79295   0.81122   0.84464   0.87088   0.89546
 Alpha virt. eigenvalues --    0.90645   0.93303   0.95119   0.96085   0.96299
 Alpha virt. eigenvalues --    0.98813   0.99976   1.03338   1.03418   1.06711
 Alpha virt. eigenvalues --    1.07905   1.08992   1.10750   1.10785   1.12585
 Alpha virt. eigenvalues --    1.14329   1.14530   1.15532   1.17347   1.18159
 Alpha virt. eigenvalues --    1.21529   1.21732   1.22314   1.22412   1.23268
 Alpha virt. eigenvalues --    1.27809   1.30010   1.31480   1.31810   1.35140
 Alpha virt. eigenvalues --    1.38450   1.39561   1.43074   1.43956   1.47895
 Alpha virt. eigenvalues --    1.48295   1.51328   1.53537   1.53715   1.57019
 Alpha virt. eigenvalues --    1.58252   1.58325   1.61208   1.65173   1.65589
 Alpha virt. eigenvalues --    1.68261   1.68760   1.74170   1.74296   1.76747
 Alpha virt. eigenvalues --    1.82787   1.84197   1.84397   1.87850   1.88915
 Alpha virt. eigenvalues --    1.94016   1.95005   1.98367   1.99345   1.99871
 Alpha virt. eigenvalues --    2.01842   2.03463   2.04291   2.07288   2.07310
 Alpha virt. eigenvalues --    2.12874   2.13405   2.15591   2.17674   2.18710
 Alpha virt. eigenvalues --    2.23888   2.25354   2.27125   2.27456   2.29564
 Alpha virt. eigenvalues --    2.32279   2.33308   2.39090   2.39298   2.40266
 Alpha virt. eigenvalues --    2.43572   2.44787   2.45970   2.47050   2.52297
 Alpha virt. eigenvalues --    2.52623   2.54006   2.54331   2.55806   2.60585
 Alpha virt. eigenvalues --    2.61335   2.62792   2.65002   2.66136   2.68265
 Alpha virt. eigenvalues --    2.69448   2.70466   2.71323   2.72943   2.73748
 Alpha virt. eigenvalues --    2.74697   2.77193   2.78010   2.84050   2.84067
 Alpha virt. eigenvalues --    2.86454   2.86527   2.86808   2.89544   2.90673
 Alpha virt. eigenvalues --    2.90861   2.93924   2.93930   2.98502   2.99612
 Alpha virt. eigenvalues --    3.02039   3.02213   3.03240   3.05134   3.06347
 Alpha virt. eigenvalues --    3.09222   3.11123   3.12743   3.13349   3.15796
 Alpha virt. eigenvalues --    3.18009   3.18127   3.19402   3.23164   3.26084
 Alpha virt. eigenvalues --    3.27702   3.27734   3.28183   3.29018   3.30808
 Alpha virt. eigenvalues --    3.32974   3.33878   3.34991   3.35783   3.37611
 Alpha virt. eigenvalues --    3.42620   3.42909   3.46374   3.47852   3.48274
 Alpha virt. eigenvalues --    3.50006   3.52217   3.55620   3.55687   3.58355
 Alpha virt. eigenvalues --    3.59553   3.64170   3.66305   3.70868   3.71709
 Alpha virt. eigenvalues --    3.72218   3.75740   3.77504   3.81367   3.90794
 Alpha virt. eigenvalues --    3.94918   3.95507   3.99152   4.00797   4.03347
 Alpha virt. eigenvalues --    4.07673   4.09583   4.12138   4.13753   4.15847
 Alpha virt. eigenvalues --    4.17627   4.20963   4.22566   4.23281   4.28417
 Alpha virt. eigenvalues --    4.30577   4.31455   4.32584   4.36906   4.38547
 Alpha virt. eigenvalues --    4.40300   4.43099   4.48158   4.50774   4.52710
 Alpha virt. eigenvalues --    4.55112   4.60965   4.68332   4.69146   4.71897
 Alpha virt. eigenvalues --    4.77352   4.84049   4.87954   4.92596   4.97261
 Alpha virt. eigenvalues --    5.00473   5.05882   5.05930   5.20353   5.33578
 Alpha virt. eigenvalues --    5.37301  22.26006  22.37898  22.49055  22.50014
 Alpha virt. eigenvalues --   22.61920  22.67789  22.74646  22.90682
          Condensed to atoms (all electrons):
               1          2          3          4          5          6
     1  C    5.105809   0.508034  -0.032092  -0.153278   0.337012   0.052067
     2  C    0.508034   5.169417   0.281301  -0.032088  -0.047378   0.005622
     3  C   -0.032092   0.281301   5.169704   0.507923  -0.047285  -0.088028
     4  C   -0.153278  -0.032088   0.507923   5.105962   0.336861   0.027445
     5  C    0.337012  -0.047378  -0.047285   0.336861   4.912821  -0.061896
     6  C    0.052067   0.005622  -0.088028   0.027445  -0.061896   5.181546
     7  C    0.027359  -0.088045   0.005615   0.052162  -0.061982   0.468488
     8  C   -0.014780  -0.007272  -0.007447  -0.014872   0.018548   0.253726
     9  H    0.430633  -0.051864   0.012958   0.008474  -0.050884  -0.001386
    10  H   -0.045754   0.439399  -0.056863   0.007354   0.010020   0.000947
    11  H    0.007354  -0.056878   0.439433  -0.045746   0.010016  -0.002642
    12  H    0.008472   0.012970  -0.051913   0.430674  -0.050884  -0.006495
    13  H   -0.019993   0.002130   0.002126  -0.019997   0.400129  -0.012934
    14  H   -0.028082  -0.000776  -0.000779  -0.028073   0.372484   0.007439
    15  H    0.002559   0.007569  -0.017675  -0.027335  -0.002042   0.444867
    16  H   -0.027311  -0.017686   0.007567   0.002567  -0.002060  -0.063238
    17  H    0.002267  -0.002508  -0.002508   0.002274  -0.001847  -0.031062
    18  H   -0.010975   0.016422   0.016475  -0.010997   0.008057  -0.057435
               7          8          9         10         11         12
     1  C    0.027359  -0.014780   0.430633  -0.045754   0.007354   0.008472
     2  C   -0.088045  -0.007272  -0.051864   0.439399  -0.056878   0.012970
     3  C    0.005615  -0.007447   0.012958  -0.056863   0.439433  -0.051913
     4  C    0.052162  -0.014872   0.008474   0.007354  -0.045746   0.430674
     5  C   -0.061982   0.018548  -0.050884   0.010020   0.010016  -0.050884
     6  C    0.468488   0.253726  -0.001386   0.000947  -0.002642  -0.006495
     7  C    5.181796   0.253406  -0.006491  -0.002642   0.000949  -0.001388
     8  C    0.253406   4.939337  -0.000281  -0.000342  -0.000354  -0.000279
     9  H   -0.006491  -0.000281   0.551079  -0.005336  -0.000167  -0.000188
    10  H   -0.002642  -0.000342  -0.005336   0.548326  -0.002525  -0.000167
    11  H    0.000949  -0.000354  -0.000167  -0.002525   0.548274  -0.005335
    12  H   -0.001388  -0.000279  -0.000188  -0.000167  -0.005335   0.551085
    13  H   -0.012948   0.004884  -0.000532  -0.000282  -0.000282  -0.000532
    14  H    0.007444  -0.001608   0.000208  -0.000370  -0.000370   0.000209
    15  H   -0.063219  -0.028883  -0.000182   0.000090  -0.000562   0.000985
    16  H    0.444921  -0.028913   0.000985  -0.000562   0.000090  -0.000183
    17  H   -0.031038   0.419874  -0.000007  -0.000078  -0.000078  -0.000007
    18  H   -0.057392   0.436629   0.000066   0.001162   0.001167   0.000066
              13         14         15         16         17         18
     1  C   -0.019993  -0.028082   0.002559  -0.027311   0.002267  -0.010975
     2  C    0.002130  -0.000776   0.007569  -0.017686  -0.002508   0.016422
     3  C    0.002126  -0.000779  -0.017675   0.007567  -0.002508   0.016475
     4  C   -0.019997  -0.028073  -0.027335   0.002567   0.002274  -0.010997
     5  C    0.400129   0.372484  -0.002042  -0.002060  -0.001847   0.008057
     6  C   -0.012934   0.007439   0.444867  -0.063238  -0.031062  -0.057435
     7  C   -0.012948   0.007444  -0.063219   0.444921  -0.031038  -0.057392
     8  C    0.004884  -0.001608  -0.028883  -0.028913   0.419874   0.436629
     9  H   -0.000532   0.000208  -0.000182   0.000985  -0.000007   0.000066
    10  H   -0.000282  -0.000370   0.000090  -0.000562  -0.000078   0.001162
    11  H   -0.000282  -0.000370  -0.000562   0.000090  -0.000078   0.001167
    12  H   -0.000532   0.000209   0.000985  -0.000183  -0.000007   0.000066
    13  H    0.587209  -0.036330   0.001063   0.001061  -0.000139   0.000083
    14  H   -0.036330   0.603199  -0.000054  -0.000054   0.000045  -0.000299
    15  H    0.001063  -0.000054   0.545520  -0.004566  -0.002291   0.000314
    16  H    0.001061  -0.000054  -0.004566   0.545542  -0.002288   0.000313
    17  H   -0.000139   0.000045  -0.002291  -0.002288   0.611177  -0.052837
    18  H    0.000083  -0.000299   0.000314   0.000313  -0.052837   0.629456
 Mulliken charges:
               1
     1  C   -0.149302
     2  C   -0.138367
     3  C   -0.138512
     4  C   -0.149310
     5  C   -0.079692
     6  C   -0.117030
     7  C   -0.116997
     8  C   -0.221372
     9  H    0.112915
    10  H    0.107622
    11  H    0.107655
    12  H    0.112910
    13  H    0.105283
    14  H    0.105765
    15  H    0.143844
    16  H    0.143813
    17  H    0.091052
    18  H    0.079723
 Sum of Mulliken charges =  -0.00000
 Mulliken charges with hydrogens summed into heavy atoms:
               1
     1  C   -0.036387
     2  C   -0.030746
     3  C   -0.030857
     4  C   -0.036399
     5  C    0.131356
     6  C    0.026814
     7  C    0.026817
     8  C   -0.050597
 APT charges:
               1
     1  C   -0.568070
     2  C   -0.417183
     3  C   -0.416996
     4  C   -0.568207
     5  C   -0.650312
     6  C   -0.402804
     7  C   -0.403252
     8  C   -0.856116
     9  H    0.453649
    10  H    0.483892
    11  H    0.483910
    12  H    0.453575
    13  H    0.327376
    14  H    0.449640
    15  H    0.457220
    16  H    0.457399
    17  H    0.550910
    18  H    0.165370
 Sum of APT charges =  -0.00000
 APT charges with hydrogens summed into heavy atoms:
               1
     1  C   -0.114421
     2  C    0.066710
     3  C    0.066915
     4  C   -0.114632
     5  C    0.126703
     6  C    0.054416
     7  C    0.054146
     8  C   -0.139836
 Electronic spatial extent (au):  <R**2>=            788.9041
 Charge=             -0.0000 electrons
 Dipole moment (field-independent basis, Debye):
    X=             -0.3248    Y=             -0.6929    Z=              0.0000  Tot=              0.7653
 Quadrupole moment (field-independent basis, Debye-Ang):
   XX=            -52.4198   YY=            -47.0950   ZZ=            -46.3218
   XY=              0.4662   XZ=              0.0001   YZ=              0.0006
 Traceless Quadrupole moment (field-independent basis, Debye-Ang):
   XX=             -3.8076   YY=              1.5172   ZZ=              2.2904
   XY=              0.4662   XZ=              0.0001   YZ=              0.0006
 Octapole moment (field-independent basis, Debye-Ang**2):
  XXX=              2.0262  YYY=              2.7744  ZZZ=              0.0020  XYY=             -2.4573
  XXY=             -3.2088  XXZ=             -0.0024  XZZ=              0.0423  YZZ=             -4.2458
  YYZ=             -0.0029  XYZ=              0.0017
 Hexadecapole moment (field-independent basis, Debye-Ang**3):
 XXXX=           -564.2490 YYYY=           -283.1326 ZZZZ=           -254.5812 XXXY=             14.1461
 XXXZ=             -0.0141 YYYX=             -2.1983 YYYZ=              0.0075 ZZZX=              0.0087
 ZZZY=              0.0020 XXYY=           -145.4169 XXZZ=           -142.2819 YYZZ=            -86.2757
 XXYZ=             -0.0009 YYXZ=              0.0000 ZZXY=             -5.5360
 N-N= 3.600209774916D+02 E-N=-1.440443324215D+03  KE= 3.093540039880D+02
  Exact polarizability:       0.000       0.000       0.000       0.000       0.000       0.000
 Approx polarizability:     155.082     -10.686     151.386       0.011       0.001     152.304
   1 Symmetry operations used in ECPInt.
 ECPInt:  NShTT=    8256 NPrTT=   24516 LenC2=    8191 LenP2D=   20096.
 LDataN:  DoStor=T MaxTD1= 8 Len=  415
 Calling FoFJK, ICntrl=    100127 FMM=F ISym2X=0 I1Cent= 0 IOpClX= 0 NMat=1 NMatS=1 NMatT=0.
 ***** Axes restored to original set *****
 -------------------------------------------------------------------
 Center     Atomic                   Forces (Hartrees/Bohr)
 Number     Number              X              Y              Z
 -------------------------------------------------------------------
      1        6          -0.004051359   -0.005272564   -0.005158493
      2        6          -0.003604293    0.005911964    0.001353801
      3        6          -0.003583945    0.005838499   -0.001392447
      4        6          -0.004079073   -0.005181127    0.005105574
      5        6          -0.001260094   -0.001651081    0.000023943
      6        6           0.003418130    0.006217913   -0.015409210
      7        6           0.003467326    0.006232513    0.015457213
      8        6           0.007096060   -0.007539716   -0.000027315
      9        1          -0.000422663    0.000199313   -0.003547329
     10        1          -0.000212830    0.002523709   -0.002381981
     11        1          -0.000213443    0.002532495    0.002406201
     12        1          -0.000423883    0.000158965    0.003607209
     13        1          -0.000034266   -0.001185153   -0.000006580
     14        1          -0.002107959   -0.000837124   -0.000001310
     15        1           0.003614386   -0.005966621    0.005932632
     16        1           0.003594591   -0.005962427   -0.005959379
     17        1           0.002337486    0.000816055    0.000006955
     18        1          -0.003534174    0.003164389   -0.000009485
 -------------------------------------------------------------------
 Cartesian Forces:  Max     0.015457213 RMS     0.004677575
 FormGI is forming the generalized inverse of G from B-inverse, IUseBI=4.

 GradGradGradGradGradGradGradGradGradGradGradGradGradGradGradGradGradGrad
 Berny optimization.
 Internal  Forces:  Max     0.008610471 RMS     0.002120989
 Search for a saddle point.
 Step number   1 out of a maximum of  108
 All quantities printed in internal units (Hartrees-Bohrs-Radians)
 Swapping is turned off.
 Second derivative matrix not updated -- analytic derivatives used.
 ITU=  0
     Eigenvalues ---   -0.00971   0.00220   0.00271   0.00663   0.00852
     Eigenvalues ---    0.00871   0.01027   0.01057   0.01078   0.01348
     Eigenvalues ---    0.01603   0.01853   0.02006   0.02158   0.02193
     Eigenvalues ---    0.02831   0.03394   0.03863   0.04205   0.04250
     Eigenvalues ---    0.05192   0.05359   0.05906   0.06155   0.06356
     Eigenvalues ---    0.06832   0.06998   0.07699   0.11257   0.11472
     Eigenvalues ---    0.14763   0.17234   0.22756   0.25420   0.28583
     Eigenvalues ---    0.29739   0.32332   0.34147   0.34554   0.36969
     Eigenvalues ---    0.37121   0.37275   0.37306   0.38499   0.39068
     Eigenvalues ---    0.40322   0.40331   0.47150
 Eigenvectors required to have negative eigenvalues:
                          R3        R12       D73       D69       D70
   1                    0.49232   0.49215  -0.21614   0.21613   0.20339
                          D74       D65       D64       D10       D45
   1                   -0.20336  -0.19730   0.19727   0.13626  -0.13624
 RFO step:  Lambda0=2.849013828D-03 Lambda=-5.96026678D-03.
 Linear search not attempted -- option 19 set.
 Iteration  1 RMS(Cart)=  0.03228326 RMS(Int)=  0.00771934
 Iteration  2 RMS(Cart)=  0.00444573 RMS(Int)=  0.00302352
 Iteration  3 RMS(Cart)=  0.00004939 RMS(Int)=  0.00302277
 Iteration  4 RMS(Cart)=  0.00000038 RMS(Int)=  0.00302277
 Variable       Old X    -DE/DX   Delta X   Delta X   Delta X     New X
                                 (Linear)    (Quad)   (Total)
    R1        2.57438   0.00860   0.00000   0.03335   0.03295   2.60733
    R2        2.83005   0.00377   0.00000   0.01535   0.01626   2.84632
    R3        4.43767   0.00861   0.00000  -0.06455  -0.06401   4.37366
    R4        2.03311   0.00334   0.00000   0.00866   0.00866   2.04178
    R5        2.68190   0.00247   0.00000  -0.01202  -0.01175   2.67015
    R6        2.03311   0.00343   0.00000   0.00903   0.00903   2.04214
    R7        4.55699   0.00205   0.00000   0.08315   0.08213   4.63911
    R8        2.57449   0.00856   0.00000   0.03326   0.03286   2.60734
    R9        2.03305   0.00345   0.00000   0.00909   0.00909   2.04214
   R10        4.55595   0.00206   0.00000   0.08351   0.08248   4.63843
   R11        2.83010   0.00376   0.00000   0.01531   0.01621   2.84631
   R12        4.43766   0.00861   0.00000  -0.06432  -0.06379   4.37388
   R13        2.03293   0.00341   0.00000   0.00884   0.00884   2.04177
   R14        2.05358   0.00100   0.00000   0.00258   0.00258   2.05616
   R15        2.07383   0.00225   0.00000   0.00557   0.00557   2.07939
   R16        2.51145  -0.00421   0.00000   0.00972   0.01272   2.52416
   R17        2.81648  -0.00183   0.00000  -0.00669  -0.00783   2.80865
   R18        2.00579   0.00841   0.00000   0.02328   0.02328   2.02908
   R19        2.81669  -0.00185   0.00000  -0.00682  -0.00799   2.80870
   R20        2.00575   0.00843   0.00000   0.02333   0.02333   2.02907
   R21        2.05321   0.00246   0.00000   0.00568   0.00568   2.05890
   R22        2.05356   0.00736   0.00000   0.01701   0.01701   2.07057
    A1        1.89391  -0.00007   0.00000  -0.01437  -0.01603   1.87788
    A2        1.67076  -0.00008   0.00000   0.03750   0.03837   1.70914
    A3        2.19850  -0.00043   0.00000  -0.01642  -0.01719   2.18131
    A4        1.51396  -0.00034   0.00000   0.01330   0.01333   1.52729
    A5        2.14601   0.00041   0.00000   0.00876   0.00832   2.15433
    A6        1.78108   0.00062   0.00000   0.01795   0.01777   1.79886
    A7        1.90197  -0.00031   0.00000   0.00135   0.00153   1.90350
    A8        2.19961   0.00002   0.00000  -0.00827  -0.00813   2.19148
    A9        1.83546  -0.00121   0.00000  -0.05228  -0.05284   1.78262
   A10        2.17726   0.00026   0.00000   0.00577   0.00533   2.18259
   A11        1.52201   0.00087   0.00000   0.02964   0.02994   1.55195
   A12        1.90187  -0.00029   0.00000   0.00147   0.00164   1.90351
   A13        2.17714   0.00026   0.00000   0.00585   0.00542   2.18256
   A14        2.19981  -0.00000   0.00000  -0.00846  -0.00831   2.19150
   A15        1.83512  -0.00120   0.00000  -0.05210  -0.05265   1.78247
   A16        1.52149   0.00088   0.00000   0.02985   0.03015   1.55164
   A17        1.89390  -0.00007   0.00000  -0.01437  -0.01603   1.87787
   A18        1.67106  -0.00008   0.00000   0.03734   0.03821   1.70927
   A19        2.19825  -0.00041   0.00000  -0.01622  -0.01699   2.18126
   A20        1.51395  -0.00034   0.00000   0.01322   0.01324   1.52719
   A21        2.14619   0.00040   0.00000   0.00861   0.00818   2.15437
   A22        1.78108   0.00062   0.00000   0.01797   0.01779   1.79887
   A23        1.75630   0.00043   0.00000  -0.00392  -0.00414   1.75216
   A24        2.01833  -0.00041   0.00000   0.00071   0.00087   2.01920
   A25        1.89426   0.00035   0.00000  -0.00039  -0.00045   1.89380
   A26        2.01823  -0.00041   0.00000   0.00082   0.00099   2.01922
   A27        1.89422   0.00035   0.00000  -0.00035  -0.00041   1.89381
   A28        1.87614  -0.00021   0.00000   0.00270   0.00267   1.87881
   A29        1.78002   0.00083   0.00000   0.00389   0.00370   1.78372
   A30        1.89909   0.00012   0.00000   0.02595   0.02488   1.92397
   A31        1.52049   0.00023   0.00000   0.12110   0.12908   1.64957
   A32        2.58623  -0.00076   0.00000  -0.06867  -0.08098   2.50525
   A33        2.48166  -0.00038   0.00000  -0.03707  -0.05425   2.42741
   A34        1.78024   0.00083   0.00000   0.00384   0.00362   1.78386
   A35        1.89948   0.00013   0.00000   0.02586   0.02478   1.92425
   A36        1.52093   0.00023   0.00000   0.12087   0.12883   1.64976
   A37        2.58591  -0.00077   0.00000  -0.06858  -0.08085   2.50506
   A38        2.48149  -0.00039   0.00000  -0.03728  -0.05434   2.42715
   A39        2.09831  -0.00024   0.00000   0.00779   0.00847   2.10677
   A40        2.07419   0.00006   0.00000  -0.01895  -0.01926   2.05493
   A41        2.09817  -0.00023   0.00000   0.00783   0.00850   2.10667
   A42        2.07426   0.00006   0.00000  -0.01895  -0.01925   2.05501
   A43        1.97523   0.00054   0.00000   0.01084   0.00984   1.98507
   A44        1.92285   0.00133   0.00000   0.00675   0.00757   1.93042
   A45        1.92322   0.00132   0.00000   0.00663   0.00746   1.93068
    D1        0.23156   0.00041   0.00000   0.04397   0.04397   0.27554
    D2       -3.00668   0.00005   0.00000   0.03168   0.03135  -2.97533
    D3        1.57066  -0.00015   0.00000   0.03679   0.03597   1.60663
    D4       -1.31261   0.00081   0.00000   0.01875   0.01926  -1.29335
    D5        1.73233   0.00044   0.00000   0.00645   0.00664   1.73897
    D6        0.02648   0.00024   0.00000   0.01156   0.01127   0.03775
    D7        3.06138   0.00022   0.00000  -0.02860  -0.02783   3.03355
    D8       -0.17687  -0.00015   0.00000  -0.04090  -0.04045  -0.21732
    D9       -1.88271  -0.00035   0.00000  -0.03578  -0.03583  -1.91854
   D10       -0.34689  -0.00076   0.00000  -0.06627  -0.06648  -0.41337
   D11       -2.53442  -0.00033   0.00000  -0.06486  -0.06523  -2.59964
   D12        1.63974  -0.00005   0.00000  -0.06856  -0.06894   1.57080
   D13        1.31038  -0.00095   0.00000  -0.02190  -0.02157   1.28881
   D14       -0.87715  -0.00052   0.00000  -0.02049  -0.02032  -0.89747
   D15       -2.98617  -0.00024   0.00000  -0.02418  -0.02404  -3.01021
   D16        3.09509  -0.00040   0.00000   0.00893   0.00939   3.10448
   D17        0.90757   0.00003   0.00000   0.01034   0.01064   0.91820
   D18       -1.20146   0.00031   0.00000   0.00665   0.00692  -1.19454
   D19        1.20783   0.00018   0.00000  -0.01220  -0.01308   1.19475
   D20        0.05855  -0.00061   0.00000  -0.01207  -0.01189   0.04667
   D21       -2.47126  -0.00033   0.00000  -0.04347  -0.04455  -2.51581
   D22       -0.68229   0.00028   0.00000   0.00209   0.00216  -0.68014
   D23       -1.83157  -0.00051   0.00000   0.00222   0.00335  -1.82822
   D24        1.92181  -0.00024   0.00000  -0.02918  -0.02932   1.89249
   D25       -2.82951  -0.00011   0.00000  -0.01105  -0.01105  -2.84056
   D26        2.30440  -0.00090   0.00000  -0.01093  -0.00986   2.29454
   D27       -0.22541  -0.00063   0.00000  -0.04233  -0.04253  -0.26793
   D28        0.00013  -0.00000   0.00000  -0.00011  -0.00011   0.00002
   D29        3.04644  -0.00038   0.00000  -0.01303  -0.01344   3.03300
   D30       -3.04634   0.00037   0.00000   0.01294   0.01335  -3.03299
   D31       -0.00003   0.00000   0.00000   0.00003   0.00003  -0.00000
   D32       -0.15830   0.00058   0.00000  -0.01627  -0.01614  -0.17443
   D33       -2.36872   0.00047   0.00000  -0.00919  -0.00873  -2.37745
   D34       -0.23177  -0.00041   0.00000  -0.04380  -0.04380  -0.27556
   D35        1.31249  -0.00081   0.00000  -0.01871  -0.01923   1.29325
   D36       -3.06136  -0.00022   0.00000   0.02858   0.02782  -3.03354
   D37        3.00666  -0.00005   0.00000  -0.03166  -0.03133   2.97533
   D38       -1.73227  -0.00044   0.00000  -0.00658  -0.00677  -1.73904
   D39        0.17707   0.00014   0.00000   0.04072   0.04028   0.21735
   D40       -1.57154   0.00016   0.00000  -0.03641  -0.03560  -1.60714
   D41       -0.02728  -0.00024   0.00000  -0.01133  -0.01104  -0.03832
   D42        1.88205   0.00035   0.00000   0.03596   0.03602   1.91807
   D43        0.15961  -0.00058   0.00000   0.01592   0.01580   0.17541
   D44        2.37004  -0.00048   0.00000   0.00877   0.00831   2.37835
   D45        0.34697   0.00076   0.00000   0.06619   0.06640   0.41338
   D46        2.53457   0.00032   0.00000   0.06471   0.06507   2.59964
   D47       -1.63969   0.00005   0.00000   0.06852   0.06890  -1.57079
   D48       -1.31060   0.00095   0.00000   0.02202   0.02169  -1.28891
   D49        0.87699   0.00052   0.00000   0.02054   0.02037   0.89736
   D50        2.98592   0.00024   0.00000   0.02434   0.02420   3.01011
   D51       -3.09531   0.00040   0.00000  -0.00877  -0.00922  -3.10453
   D52       -0.90772  -0.00003   0.00000  -0.01025  -0.01055  -0.91826
   D53        1.20121  -0.00031   0.00000  -0.00645  -0.00671   1.19449
   D54       -1.20714  -0.00017   0.00000   0.01206   0.01295  -1.19419
   D55       -0.05780   0.00060   0.00000   0.01186   0.01167  -0.04613
   D56        2.47181   0.00034   0.00000   0.04345   0.04451   2.51633
   D57        0.68296  -0.00027   0.00000  -0.00223  -0.00229   0.68067
   D58        1.83230   0.00051   0.00000  -0.00243  -0.00357   1.82873
   D59       -1.92127   0.00024   0.00000   0.02916   0.02927  -1.89200
   D60        2.83036   0.00011   0.00000   0.01074   0.01076   2.84111
   D61       -2.30349   0.00089   0.00000   0.01054   0.00947  -2.29401
   D62        0.22612   0.00062   0.00000   0.04213   0.04232   0.26844
   D63       -0.00032  -0.00000   0.00000   0.00007   0.00007  -0.00025
   D64       -1.81939  -0.00141   0.00000  -0.20484  -0.19446  -2.01385
   D65        1.81768   0.00141   0.00000   0.20565   0.19524   2.01292
   D66       -0.00139   0.00001   0.00000   0.00074   0.00071  -0.00068
   D67        2.77180  -0.00051   0.00000   0.00088  -0.00022   2.77158
   D68        0.20238  -0.00138   0.00000  -0.00182  -0.00132   0.20106
   D69        0.84099  -0.00080   0.00000  -0.22939  -0.22652   0.61447
   D70       -1.72843  -0.00167   0.00000  -0.23209  -0.22763  -1.95605
   D71       -2.77151   0.00051   0.00000  -0.00097   0.00014  -2.77138
   D72       -0.20221   0.00138   0.00000   0.00181   0.00132  -0.20089
   D73       -0.83944   0.00079   0.00000   0.22859   0.22570  -0.61374
   D74        1.72986   0.00167   0.00000   0.23138   0.22689   1.95675
   D75       -0.85331   0.00027   0.00000   0.00925   0.00793  -0.84538
   D76       -0.21545   0.00090   0.00000  -0.00416  -0.00481  -0.22027
   D77        0.21469  -0.00090   0.00000   0.00432   0.00497   0.21966
   D78        0.85254  -0.00027   0.00000  -0.00909  -0.00776   0.84478
   D79        2.82221  -0.00032   0.00000   0.00683   0.00649   2.82870
   D80       -2.82312   0.00032   0.00000  -0.00658  -0.00624  -2.82937
         Item               Value     Threshold  Converged?
 Maximum Force            0.008610     0.000450     NO 
 RMS     Force            0.002121     0.000300     NO 
 Maximum Displacement     0.212397     0.001800     NO 
 RMS     Displacement     0.035336     0.001200     NO 
 Predicted change in Energy=-1.857458D-03
 GradGradGradGradGradGradGradGradGradGradGradGradGradGradGradGradGradGrad

                          Input orientation:                          
 ---------------------------------------------------------------------
 Center     Atomic      Atomic             Coordinates (Angstroms)
 Number     Number       Type             X           Y           Z
 ---------------------------------------------------------------------
      1          6           0       -0.854352   -0.252564   -1.156994
      2          6           0       -0.995255    1.043956   -0.706584
      3          6           0       -0.995085    1.044207    0.706398
      4          6           0       -0.854051   -0.252152    1.157248
      5          6           0       -1.147249   -1.170969    0.000329
      6          6           0        1.392465   -0.518033    0.667715
      7          6           0        1.392227   -0.517929   -0.668014
      8          6           0        1.920746    0.700131   -0.000119
      9          1           0       -0.917169   -0.559324   -2.191089
     10          1           0       -0.995077    1.928489   -1.327403
     11          1           0       -0.994755    1.928979    1.326875
     12          1           0       -0.916629   -0.558487    2.191479
     13          1           0       -0.608489   -2.116295    0.000420
     14          1           0       -2.223443   -1.400348    0.000509
     15          1           0        1.596095   -1.122865    1.531214
     16          1           0        1.596012   -1.122643   -1.531560
     17          1           0        2.988731    0.915689   -0.000386
     18          1           0        1.289978    1.596057    0.000163
 ---------------------------------------------------------------------
                    Distance matrix (angstroms):
                    1          2          3          4          5
     1  C    0.000000
     2  C    1.379741   0.000000
     3  C    2.274567   1.412983   0.000000
     4  C    2.314242   2.274577   1.379747   0.000000
     5  C    1.506205   2.329961   2.329955   1.506204   0.000000
     6  C    2.906583   3.166973   2.853505   2.314556   2.705896
     7  C    2.314441   2.853251   3.166787   2.906541   2.705934
     8  C    3.153911   3.019995   3.019872   3.153702   3.593550
     9  H    1.080463   2.186402   3.312524   3.362989   2.286779
    10  H    2.192221   1.080655   2.217724   3.308862   3.375302
    11  H    3.308844   2.217707   1.080654   2.192237   3.375301
    12  H    3.362996   3.312518   2.186378   1.080459   2.286800
    13  H    2.207612   3.261384   3.261386   2.207619   1.088074
    14  H    2.128763   2.825428   2.825419   2.128764   1.100368
    15  H    3.740131   4.051907   3.477174   2.627015   3.141952
    16  H    2.627093   3.476981   4.051849   3.740354   3.142371
    17  H    4.179934   4.048125   4.048067   4.179825   4.632544
    18  H    3.058523   2.454913   2.454551   3.058035   3.687344
                    6          7          8          9         10
     6  C    0.000000
     7  C    1.335729   0.000000
     8  C    1.486272   1.486300   0.000000
     9  H    3.675442   2.766727   3.800044   0.000000
    10  H    3.958071   3.481231   3.431118   2.634622   0.000000
    11  H    3.481549   3.957856   3.430908   4.309727   2.654279
    12  H    2.766841   3.675481   3.799726   4.382568   4.309726
    13  H    2.646420   2.646590   3.785404   2.705948   4.274674
    14  H    3.781327   3.781356   4.646107   2.686406   3.788586
    15  H    1.073740   2.290004   2.402851   4.526546   4.919007
    16  H    2.289933   1.073740   2.402762   2.658643   4.008095
    17  H    2.247216   2.247179   1.089522   4.714965   4.319429
    18  H    2.219348   2.219426   1.095697   3.784012   2.663535
                   11         12         13         14         15
    11  H    0.000000
    12  H    2.634603   0.000000
    13  H    4.274684   2.706003   0.000000
    14  H    3.788580   2.686418   1.766538   0.000000
    15  H    4.008493   2.658619   2.861892   4.124188   0.000000
    16  H    4.918853   4.526881   2.862538   4.124632   3.062774
    17  H    4.319321   4.714796   4.704563   5.703576   2.905329
    18  H    2.662894   3.783258   4.169620   4.617637   3.135341
                   16         17         18
    16  H    0.000000
    17  H    2.904989   0.000000
    18  H    3.135468   1.829935   0.000000
 Stoichiometry    C8H10
 Framework group  C1[X(C8H10)]
 Deg. of freedom    48
 Full point group                 C1      NOp   1
 Largest Abelian subgroup         C1      NOp   1
 Largest concise Abelian subgroup C1      NOp   1
                         Standard orientation:                         
 ---------------------------------------------------------------------
 Center     Atomic      Atomic             Coordinates (Angstroms)
 Number     Number       Type             X           Y           Z
 ---------------------------------------------------------------------
      1          6           0       -0.855821   -0.244965   -1.156996
      2          6           0       -0.986526    1.052622   -0.706586
      3          6           0       -0.986353    1.052872    0.706397
      4          6           0       -0.855516   -0.244556    1.157246
      5          6           0       -1.155929   -1.161039    0.000328
      6          6           0        1.388840   -0.528093    0.667713
      7          6           0        1.388602   -0.527986   -0.668016
      8          6           0        1.926682    0.685880   -0.000121
      9          1           0       -0.921047   -0.551222   -2.191090
     10          1           0       -0.979393    1.937126   -1.327405
     11          1           0       -0.979066    1.937614    1.326874
     12          1           0       -0.920501   -0.550390    2.191477
     13          1           0       -0.624619   -2.110572    0.000418
     14          1           0       -2.233894   -1.381949    0.000507
     15          1           0        1.587708   -1.134507    1.531213
     16          1           0        1.587626   -1.134284   -1.531561
     17          1           0        2.996329    0.893035   -0.000387
     18          1           0        1.302978    1.586738    0.000162
 ---------------------------------------------------------------------
 Rotational constants (GHZ):           3.3743894           2.0582278           2.0234466
 Standard basis: def2TZVP (5D, 7F)
 There are   348 symmetry adapted cartesian basis functions of A   symmetry.
 There are   308 symmetry adapted basis functions of A   symmetry.
   308 basis functions,   488 primitive gaussians,   348 cartesian basis functions
    29 alpha electrons       29 beta electrons
       nuclear repulsion energy       358.6195799882 Hartrees.
 NAtoms=   18 NActive=   18 NUniq=   18 SFac= 1.00D+00 NAtFMM=   60 NAOKFM=F Big=F
 Integral buffers will be    131072 words long.
 Raffenetti 2 integral format.
 Two-electron integral symmetry is turned on.
 One-electron integrals computed using PRISM.
   1 Symmetry operations used in ECPInt.
 ECPInt:  NShTT=    8256 NPrTT=   24516 LenC2=    8191 LenP2D=   20060.
 LDataN:  DoStor=T MaxTD1= 6 Len=  172
 NBasis=   308 RedAO= T EigKep=  4.05D-05  NBF=   308
 NBsUse=   308 1.00D-06 EigRej= -1.00D+00 NBFU=   308
 Initial guess from the checkpoint file:  "/tmp/Gau-2852536.chk"
 B after Tr=     0.000000   -0.000000    0.000000
         Rot=    0.999902   -0.000140    0.000001   -0.014011 Ang=  -1.61 deg.
 ExpMin= 9.52D-02 ExpMax= 1.36D+04 ExpMxC= 4.63D+02 IAcc=3 IRadAn=         5 AccDes= 0.00D+00
 Harris functional with IExCor=  402 and IRadAn=       5 diagonalized for initial guess.
 HarFok:  IExCor=  402 AccDes= 0.00D+00 IRadAn=         5 IDoV= 1 UseB2=F ITyADJ=14
 ICtDFT=  3500011 ScaDFX=  1.000000  1.000000  1.000000  1.000000
 FoFCou: FMM=F IPFlag=           0 FMFlag=      100000 FMFlg1=           0
         NFxFlg=           0 DoJE=T BraDBF=F KetDBF=T FulRan=T
         wScrn=  0.000000 ICntrl=       500 IOpCl=  0 I1Cent=   200000004 NGrid=           0
         NMat0=    1 NMatS0=      1 NMatT0=    0 NMatD0=    1 NMtDS0=    0 NMtDT0=    0
 Petite list used in FoFCou.
 Requested convergence on RMS density matrix=1.00D-08 within 128 cycles.
 Requested convergence on MAX density matrix=1.00D-06.
 Requested convergence on             energy=1.00D-06.
 No special actions if energy rises.
 Integral accuracy reduced to 1.0D-05 until final iterations.
 EnCoef did     2 forward-backward iterations
 Initial convergence to 1.0D-05 achieved.  Increase integral accuracy.
 SCF Done:  E(RB3LYP) =  -310.820688922     A.U. after   12 cycles
            NFock= 12  Conv=0.80D-08     -V/T= 2.0054
   1 Symmetry operations used in ECPInt.
 ECPInt:  NShTT=    8256 NPrTT=   24516 LenC2=    8191 LenP2D=   20060.
 LDataN:  DoStor=T MaxTD1= 7 Len=  274
 Calling FoFJK, ICntrl=      2127 FMM=F ISym2X=0 I1Cent= 0 IOpClX= 0 NMat=1 NMatS=1 NMatT=0.
 ***** Axes restored to original set *****
 -------------------------------------------------------------------
 Center     Atomic                   Forces (Hartrees/Bohr)
 Number     Number              X              Y              Z
 -------------------------------------------------------------------
      1        6          -0.001161004   -0.001407689   -0.000700659
      2        6          -0.000342486    0.001358136    0.000704328
      3        6          -0.000338507    0.001354116   -0.000703383
      4        6          -0.001167978   -0.001397216    0.000698683
      5        6           0.000302764   -0.000212681    0.000000249
      6        6           0.000221195    0.000924596    0.000542948
      7        6           0.000239283    0.000918304   -0.000533285
      8        6           0.001496042    0.000522520   -0.000002597
      9        1          -0.000060438    0.000136319   -0.000151381
     10        1          -0.000206036    0.000068256   -0.000109303
     11        1          -0.000207310    0.000067507    0.000111887
     12        1          -0.000059617    0.000131407    0.000152517
     13        1          -0.000042093   -0.000014297   -0.000000343
     14        1          -0.000009717   -0.000123899   -0.000000829
     15        1           0.000318806   -0.001180159   -0.000155145
     16        1           0.000305712   -0.001179387    0.000149183
     17        1          -0.000071887    0.000211951    0.000004736
     18        1           0.000783271   -0.000177783   -0.000007607
 -------------------------------------------------------------------
 Cartesian Forces:  Max     0.001496042 RMS     0.000631044

 GradGradGradGradGradGradGradGradGradGradGradGradGradGradGradGradGradGrad
 Berny optimization.
 FormGI is forming the generalized inverse of G from B-inverse, IUseBI=4.
 Internal  Forces:  Max     0.001517516 RMS     0.000273079
 Search for a saddle point.
 Step number   2 out of a maximum of  108
 All quantities printed in internal units (Hartrees-Bohrs-Radians)
 Swapping is turned off.
 Update second derivatives using D2CorX and points    1    2
 ITU=  0  0
     Eigenvalues ---   -0.01121   0.00220   0.00269   0.00659   0.00851
     Eigenvalues ---    0.00870   0.01029   0.01078   0.01141   0.01349
     Eigenvalues ---    0.01601   0.01846   0.02039   0.02166   0.02183
     Eigenvalues ---    0.02830   0.03401   0.03869   0.04192   0.04247
     Eigenvalues ---    0.05190   0.05336   0.05886   0.06142   0.06336
     Eigenvalues ---    0.06826   0.06966   0.07693   0.11206   0.11458
     Eigenvalues ---    0.14737   0.17222   0.22726   0.25394   0.28578
     Eigenvalues ---    0.29733   0.32332   0.34147   0.34554   0.36963
     Eigenvalues ---    0.37120   0.37275   0.37304   0.38490   0.39029
     Eigenvalues ---    0.40314   0.40330   0.47122
 Eigenvectors required to have negative eigenvalues:
                          R3        R12       D69       D73       D70
   1                    0.49783   0.49760   0.20660  -0.20654   0.19117
                          D74       D65       D64       D10       D45
   1                   -0.19108  -0.16992   0.16988   0.13681  -0.13679
 RFO step:  Lambda0=4.651821159D-05 Lambda=-2.95527937D-04.
 Linear search not attempted -- option 19 set.
 Iteration  1 RMS(Cart)=  0.01067713 RMS(Int)=  0.00020926
 Iteration  2 RMS(Cart)=  0.00013339 RMS(Int)=  0.00014951
 Iteration  3 RMS(Cart)=  0.00000004 RMS(Int)=  0.00014951
 Variable       Old X    -DE/DX   Delta X   Delta X   Delta X     New X
                                 (Linear)    (Quad)   (Total)
    R1        2.60733   0.00152   0.00000   0.00567   0.00563   2.61296
    R2        2.84632   0.00020   0.00000   0.00045   0.00049   2.84680
    R3        4.37366   0.00101   0.00000  -0.00177  -0.00171   4.37194
    R4        2.04178   0.00011   0.00000   0.00026   0.00026   2.04204
    R5        2.67015  -0.00030   0.00000  -0.00391  -0.00403   2.66612
    R6        2.04214   0.00012   0.00000   0.00030   0.00030   2.04244
    R7        4.63911   0.00067   0.00000   0.07533   0.07529   4.71440
    R8        2.60734   0.00151   0.00000   0.00568   0.00564   2.61298
    R9        2.04214   0.00012   0.00000   0.00030   0.00030   2.04244
   R10        4.63843   0.00067   0.00000   0.07590   0.07586   4.71429
   R11        2.84631   0.00021   0.00000   0.00046   0.00049   2.84680
   R12        4.37388   0.00101   0.00000  -0.00222  -0.00218   4.37170
   R13        2.04177   0.00011   0.00000   0.00027   0.00027   2.04204
   R14        2.05616  -0.00000   0.00000  -0.00014  -0.00014   2.05602
   R15        2.07939   0.00003   0.00000   0.00024   0.00024   2.07963
   R16        2.52416   0.00021   0.00000   0.00485   0.00495   2.52912
   R17        2.80865   0.00054   0.00000   0.00235   0.00236   2.81101
   R18        2.02908   0.00060   0.00000   0.00229   0.00229   2.03136
   R19        2.80870   0.00054   0.00000   0.00225   0.00224   2.81094
   R20        2.02907   0.00060   0.00000   0.00228   0.00228   2.03136
   R21        2.05890  -0.00003   0.00000  -0.00021  -0.00021   2.05868
   R22        2.07057   0.00010   0.00000  -0.00126  -0.00124   2.06933
    A1        1.87788   0.00004   0.00000  -0.00116  -0.00122   1.87666
    A2        1.70914  -0.00013   0.00000   0.00427   0.00430   1.71344
    A3        2.18131  -0.00002   0.00000  -0.00236  -0.00232   2.17899
    A4        1.52729   0.00001   0.00000  -0.00208  -0.00208   1.52521
    A5        2.15433   0.00000   0.00000   0.00159   0.00159   2.15592
    A6        1.79886   0.00005   0.00000   0.00247   0.00245   1.80130
    A7        1.90350  -0.00004   0.00000   0.00048   0.00052   1.90402
    A8        2.19148   0.00002   0.00000  -0.00119  -0.00116   2.19032
    A9        1.78262  -0.00015   0.00000  -0.00968  -0.00972   1.77291
   A10        2.18259   0.00003   0.00000   0.00124   0.00115   2.18374
   A11        1.55195   0.00015   0.00000   0.00774   0.00781   1.55976
   A12        1.90351  -0.00004   0.00000   0.00047   0.00052   1.90402
   A13        2.18256   0.00003   0.00000   0.00127   0.00117   2.18374
   A14        2.19150   0.00002   0.00000  -0.00121  -0.00117   2.19033
   A15        1.78247  -0.00015   0.00000  -0.00956  -0.00959   1.77288
   A16        1.55164   0.00015   0.00000   0.00800   0.00807   1.55971
   A17        1.87787   0.00004   0.00000  -0.00115  -0.00122   1.87665
   A18        1.70927  -0.00013   0.00000   0.00417   0.00420   1.71347
   A19        2.18126  -0.00002   0.00000  -0.00232  -0.00228   2.17898
   A20        1.52719   0.00001   0.00000  -0.00195  -0.00195   1.52524
   A21        2.15437   0.00000   0.00000   0.00154   0.00155   2.15592
   A22        1.79887   0.00005   0.00000   0.00244   0.00241   1.80128
   A23        1.75216   0.00009   0.00000   0.00079   0.00080   1.75296
   A24        2.01920   0.00001   0.00000   0.00033   0.00032   2.01952
   A25        1.89380  -0.00004   0.00000  -0.00032  -0.00032   1.89349
   A26        2.01922   0.00001   0.00000   0.00032   0.00031   2.01952
   A27        1.89381  -0.00004   0.00000  -0.00032  -0.00032   1.89349
   A28        1.87881  -0.00003   0.00000  -0.00077  -0.00077   1.87803
   A29        1.78372  -0.00002   0.00000  -0.00010  -0.00010   1.78362
   A30        1.92397   0.00003   0.00000   0.01568   0.01560   1.93957
   A31        1.64957   0.00009   0.00000   0.02105   0.02120   1.67077
   A32        2.50525  -0.00031   0.00000  -0.02774  -0.02799   2.47726
   A33        2.42741   0.00013   0.00000  -0.00615  -0.00718   2.42023
   A34        1.78386  -0.00002   0.00000  -0.00034  -0.00035   1.78351
   A35        1.92425   0.00003   0.00000   0.01538   0.01529   1.93955
   A36        1.64976   0.00009   0.00000   0.02064   0.02078   1.67054
   A37        2.50506  -0.00031   0.00000  -0.02744  -0.02768   2.47739
   A38        2.42715   0.00013   0.00000  -0.00575  -0.00674   2.42040
   A39        2.10677   0.00005   0.00000   0.00146   0.00146   2.10823
   A40        2.05493  -0.00002   0.00000   0.00003   0.00011   2.05504
   A41        2.10667   0.00005   0.00000   0.00152   0.00152   2.10820
   A42        2.05501  -0.00002   0.00000  -0.00001   0.00007   2.05509
   A43        1.98507   0.00000   0.00000  -0.00212  -0.00223   1.98284
   A44        1.93042   0.00028   0.00000  -0.01205  -0.01208   1.91834
   A45        1.93068   0.00028   0.00000  -0.01230  -0.01232   1.91836
    D1        0.27554  -0.00010   0.00000   0.00062   0.00063   0.27617
    D2       -2.97533   0.00001   0.00000   0.00585   0.00584  -2.96949
    D3        1.60663  -0.00007   0.00000   0.00366   0.00357   1.61020
    D4       -1.29335  -0.00008   0.00000   0.00163   0.00165  -1.29170
    D5        1.73897   0.00004   0.00000   0.00686   0.00685   1.74582
    D6        0.03775  -0.00005   0.00000   0.00467   0.00458   0.04233
    D7        3.03355  -0.00004   0.00000  -0.00402  -0.00400   3.02955
    D8       -0.21732   0.00008   0.00000   0.00121   0.00120  -0.21611
    D9       -1.91854  -0.00001   0.00000  -0.00098  -0.00107  -1.91960
   D10       -0.41337   0.00013   0.00000  -0.00108  -0.00111  -0.41447
   D11       -2.59964   0.00006   0.00000  -0.00223  -0.00224  -2.60189
   D12        1.57080   0.00012   0.00000  -0.00120  -0.00121   1.56959
   D13        1.28881   0.00000   0.00000   0.00275   0.00276   1.29156
   D14       -0.89747  -0.00008   0.00000   0.00161   0.00162  -0.89585
   D15       -3.01021  -0.00001   0.00000   0.00264   0.00265  -3.00756
   D16        3.10448   0.00007   0.00000   0.00453   0.00450   3.10898
   D17        0.91820  -0.00000   0.00000   0.00338   0.00337   0.92157
   D18       -1.19454   0.00006   0.00000   0.00441   0.00440  -1.19014
   D19        1.19475   0.00009   0.00000  -0.00191  -0.00196   1.19278
   D20        0.04667   0.00003   0.00000  -0.00235  -0.00231   0.04435
   D21       -2.51581  -0.00023   0.00000  -0.02230  -0.02253  -2.53834
   D22       -0.68014   0.00005   0.00000  -0.00046  -0.00044  -0.68058
   D23       -1.82822  -0.00001   0.00000  -0.00089  -0.00079  -1.82901
   D24        1.89249  -0.00027   0.00000  -0.02085  -0.02101   1.87148
   D25       -2.84056   0.00003   0.00000  -0.00183  -0.00182  -2.84238
   D26        2.29454  -0.00002   0.00000  -0.00226  -0.00217   2.29238
   D27       -0.26793  -0.00028   0.00000  -0.02222  -0.02238  -0.29032
   D28        0.00002  -0.00000   0.00000  -0.00001  -0.00001   0.00000
   D29        3.03300   0.00012   0.00000   0.00502   0.00501   3.03801
   D30       -3.03299  -0.00012   0.00000  -0.00502  -0.00501  -3.03800
   D31       -0.00000   0.00000   0.00000   0.00001   0.00001   0.00000
   D32       -0.17443   0.00006   0.00000  -0.01048  -0.01035  -0.18478
   D33       -2.37745   0.00002   0.00000  -0.00991  -0.00980  -2.38725
   D34       -0.27556   0.00011   0.00000  -0.00060  -0.00061  -0.27618
   D35        1.29325   0.00008   0.00000  -0.00150  -0.00152   1.29173
   D36       -3.03354   0.00004   0.00000   0.00404   0.00402  -3.02952
   D37        2.97533  -0.00001   0.00000  -0.00585  -0.00584   2.96949
   D38       -1.73904  -0.00004   0.00000  -0.00675  -0.00675  -1.74578
   D39        0.21735  -0.00008   0.00000  -0.00121  -0.00121   0.21614
   D40       -1.60714   0.00007   0.00000  -0.00324  -0.00315  -1.61029
   D41       -0.03832   0.00005   0.00000  -0.00414  -0.00405  -0.04238
   D42        1.91807   0.00001   0.00000   0.00140   0.00148   1.91955
   D43        0.17541  -0.00006   0.00000   0.00957   0.00945   0.18485
   D44        2.37835  -0.00002   0.00000   0.00907   0.00896   2.38730
   D45        0.41338  -0.00013   0.00000   0.00107   0.00110   0.41447
   D46        2.59964  -0.00006   0.00000   0.00223   0.00224   2.60188
   D47       -1.57079  -0.00012   0.00000   0.00119   0.00120  -1.56959
   D48       -1.28891  -0.00000   0.00000  -0.00270  -0.00270  -1.29161
   D49        0.89736   0.00008   0.00000  -0.00154  -0.00156   0.89580
   D50        3.01011   0.00001   0.00000  -0.00258  -0.00260   3.00752
   D51       -3.10453  -0.00007   0.00000  -0.00451  -0.00449  -3.10901
   D52       -0.91826   0.00000   0.00000  -0.00335  -0.00334  -0.92160
   D53        1.19449  -0.00006   0.00000  -0.00439  -0.00438   1.19011
   D54       -1.19419  -0.00009   0.00000   0.00141   0.00147  -1.19272
   D55       -0.04613  -0.00003   0.00000   0.00187   0.00183  -0.04430
   D56        2.51633   0.00023   0.00000   0.02182   0.02205   2.53838
   D57        0.68067  -0.00005   0.00000  -0.00002  -0.00003   0.68064
   D58        1.82873   0.00001   0.00000   0.00043   0.00033   1.82906
[...]
 ,-0.0196591,0.0149345,0.0820984,-0.0858423,-0.0155005,0.0115572,0.2135
 599,-0.0885404,0.0345817,-0.019796,-0.0149889,0.0820139,-0.0858947,0.0
 155121,-0.0116479,-0.2135604,-0.0885453,0.0306693,-0.0779028,-0.000013
 6,-0.0427974,0.0969693,-0.0000529,-0.0000282,-0.0000227,-0.1567089,0.0
 842467,-0.0246802,-0.0425785,-0.0237073,0.051299,-0.02788,-0.0155212,-
 0.0322636,-0.0780888,0.1561354,-0.0250593,0.0094939,0.0171004,-0.03492
 76,0.0759532,-0.0028946,0.0690736,0.0274293,0.1561273,-0.0250738,-0.00
 95121,0.0170876,-0.0349531,-0.0759435,0.002871,-0.0690588,0.0274639,0.
 0842483,-0.0246642,0.0425557,-0.0236955,0.0513092,0.0278577,0.0154957,
 0.0322433,-0.0781193,0.0401199,0.1451992,-0.0000147,0.0329548,-0.07222
 49,0.0000132,-0.0000067,0.000002,0.0592734,-0.1483462,-0.0667886,0.000
 0297,-0.0508314,0.0259794,0.0000137,0.0000251,0.0000112,0.09925,0.0247
 145,0.0281428,-0.0443343,-0.044739,0.0280494,0.1027523,-0.0217999,0.04
 56883,0.0646223,0.024664,0.0281803,0.0443929,-0.0447436,0.0279942,-0.1
 027477,0.0218296,-0.0456809,0.0646766,-0.2171024,-0.1002811,0.0000536,
 -0.0761026,0.0204909,0.0000229,0.0000586,0.0000216,0.1355257,-0.043624
 ,0.0903759,-0.0000047,-0.0175972,-0.1140991,0.0000237,0.0000248,0.0000
 181,0.0409252\Polar=104.8265395,-2.2336912,89.0836219,-0.0018039,-0.00
 02933,86.7898233\Quadrupole=-2.2452338,1.0570897,1.188144,-0.2039211,0
 .00034,0.0000586\PG=C01 [X(C8H10)]\NImag=1\\0.09768527,0.02257380,0.58
 234204,-0.01749155,0.12677043,0.70480233,-0.05115387,0.02623772,0.0093
 4045,0.14687728,-0.00063147,-0.33489603,-0.08179602,-0.03597229,0.7460
 0478,-0.01867370,-0.05677660,-0.12586241,-0.00258856,-0.10310340,0.626
 50780,0.01095498,-0.00182024,0.00274740,-0.05765981,0.00341490,0.00041
 454,0.14687725,-0.01413228,0.01088968,-0.02930831,0.00341016,-0.118834
 92,-0.02401816,-0.03594630,0.74607046,0.03065888,-0.06493000,-0.039300
 68,-0.00045690,0.02397904,-0.29211224,0.00268289,0.10307841,0.62646437
 ,-0.02553955,0.01949204,0.00503298,0.01094983,-0.01413211,-0.03066459,
 -0.05115054,-0.00060789,0.01865925,0.09770535,0.01949040,-0.01744985,0
 .00206931,-0.00180878,0.01090741,0.06492122,0.02624560,-0.33489330,0.0
 5682203,0.02254240,0.58231423,-0.00504390,-0.00208280,-0.06202799,-0.0
 0275598,0.02930173,-0.03931576,-0.00935932,0.08184659,-0.12589459,0.01
 759788,-0.12675802,0.70484310,-0.04982988,-0.01597056,0.01439807,0.000
 66834,0.00657449,-0.00365209,0.00066905,0.00657168,0.00365113,-0.04983
 929,-0.01598029,-0.01441013,0.52127985,-0.00564726,-0.11679618,0.04579
 467,-0.00852034,-0.04544178,0.01437234,-0.00852329,-0.04544709,-0.0143
 6062,-0.00565881,-0.11681631,-0.04579781,-0.04419850,0.61357492,0.0181
 0933,0.06002255,-0.14867088,0.00123599,0.01141041,0.00329812,-0.001233
 93,-0.01140143,0.00330386,-0.01812421,-0.06002382,-0.14864057,-0.00000
 755,-0.00002320,0.39605004,0.01270224,-0.00993382,-0.00308084,-0.00865
 159,0.01159832,0.02256233,-0.01410793,0.02979523,-0.03092203,0.0486210
 7,-0.02579364,-0.00671745,-0.02184295,-0.00414547,-0.00487736,0.124749
 89,-0.00622026,-0.00037243,0.00072967,0.00239026,-0.00593553,-0.002532
 86,0.00678418,-0.00693077,0.00647336,-0.00620769,-0.00635873,0.0019658
 9,-0.00643057,-0.00189103,-0.00145833,0.02299169,0.38825091,-0.0477504
 4,0.02526742,-0.00471785,0.00509380,-0.02147283,-0.03305706,0.00958945
 ,-0.02962958,0.03073767,-0.04804357,0.02759186,-0.00778268,0.01178395,
 0.00476166,-0.00006209,0.08753798,-0.23759566,0.78556067,0.04864587,-0
 .02580616,0.00671131,-0.01410677,0.02981592,0.03092785,-0.00865489,0.0
 1160154,-0.02257444,0.01271869,-0.00994170,0.00307849,-0.02185050,-0.0
 0414794,0.00488360,-0.03942477,0.02590146,0.03170282,0.12473306,-0.006
 19960,-0.00636804,-0.00196567,0.00678289,-0.00692657,-0.00646570,0.002
 38936,-0.00592813,0.00252547,-0.00620467,-0.00038013,-0.00072958,-0.00
 643480,-0.00189199,0.00145998,0.02588275,-0.03622670,-0.02387040,0.022
 96362,0.38837206,0.04804067,-0.02759268,-0.00779240,-0.00958305,0.0296
 3608,0.03072819,-0.00509706,0.02146220,-0.03305674,0.04774370,-0.02526
 241,-0.00472136,-0.01177754,-0.00476060,-0.00006061,-0.03181964,0.0237
 3484,-0.46654214,-0.08744467,0.23769329,0.78539378,-0.00394028,-0.0027
 2359,0.00061478,-0.00255961,-0.00365251,-0.00238913,-0.00255875,-0.003
 65099,0.00239038,-0.00393850,-0.00272318,-0.00061281,-0.00507728,-0.00
 281154,0.00000042,-0.07025129,-0.05563786,0.02442880,-0.07025487,-0.05
 564970,-0.02440346,0.58914968,0.00463197,-0.00000897,0.00016971,0.0063
 8455,0.00246383,-0.00126977,0.00638185,0.00246139,0.00126879,0.0046280
 8,-0.00000618,-0.00017162,-0.00188188,-0.00152272,0.00000023,-0.056116
 62,-0.15892148,0.10156991,-0.05613812,-0.15894025,-0.10151708,0.021666
 08,0.57725231,-0.00456592,0.00100854,-0.00065334,-0.00228133,-0.001727
 71,-0.00161743,0.00227927,0.00172710,-0.00161891,0.00456423,-0.0010080
 6,-0.00065409,0.00000057,0.00000047,-0.00104519,0.01495423,0.06509479,
 -0.05944678,-0.01492609,-0.06504046,-0.05938325,-0.00004979,-0.0000720
 0,0.20202948,-0.02740046,-0.01171557,-0.02048199,0.00186535,0.00361716
 ,0.00859868,0.00482278,0.00310717,-0.00276323,0.00005791,-0.00327817,-
 0.00171652,-0.00151394,0.00365232,0.00690864,-0.00157001,0.00057291,0.
 00218549,-0.00250757,-0.00114655,-0.00656659,-0.00022786,-0.00039647,-
 0.00011014,0.02693393,-0.00662581,-0.07927598,-0.07579443,-0.00311186,
 0.00052500,-0.02781694,0.00090226,-0.00544636,-0.00191396,-0.00108177,
 -0.00387998,0.00371256,0.00381029,0.00987437,0.01642268,-0.00015853,0.
 00005856,0.00031211,-0.00021978,-0.00007459,0.00045736,0.00001545,0.00
 009059,-0.00008607,0.00583633,0.07496626,-0.01225811,-0.07944708,-0.32
 106926,-0.00091227,0.00234805,-0.00267468,-0.00036434,-0.00127201,0.00
 003807,0.00063723,0.00244213,-0.00240913,-0.00337971,-0.00909687,-0.00
 947260,0.00046654,0.00005586,-0.00044859,0.00080877,-0.00015381,0.0005
 7056,-0.00012405,-0.00009050,0.00014495,0.01502356,0.08560486,0.335473
 15,0.00362623,0.00218301,-0.00233049,-0.03573407,0.00311160,0.00091286
 ,0.00132797,-0.00080454,-0.00009506,0.00448013,0.00018154,0.00003973,0
 .00655833,-0.00020403,0.00057936,0.00088268,-0.00006741,0.00049036,-0.
 00021033,0.00018303,-0.00009150,0.00010884,-0.00068993,0.00023277,-0.0
 0362183,0.00012464,0.00015610,0.02481043,-0.00218457,-0.01352053,0.019
 16217,0.00649679,-0.24798960,0.13356773,-0.00058148,0.00583883,-0.0037
 9146,-0.00047345,-0.00003099,-0.00166697,0.00221608,-0.00385228,-0.001
 64758,0.00010387,0.00011193,-0.00051281,-0.00007233,-0.00010220,0.0000
 9875,0.00027445,0.00004855,-0.00008988,-0.00019803,0.00086127,-0.00058
 700,-0.00508918,0.25876649,-0.00121078,-0.01001948,0.01119142,-0.00037
 382,0.13311725,-0.15377247,-0.00087427,0.02480299,-0.00645462,0.000214
 99,0.00026828,-0.00600734,0.00094454,-0.00283265,-0.00092435,0.0006145
 8,-0.00034825,-0.00042353,0.00035109,-0.00002203,0.00052805,-0.0001350
 6,0.00059823,0.00023898,-0.00030983,0.00095855,0.00024858,0.00122739,-
 0.14650013,0.15424947,0.00448048,0.00018121,-0.00004153,0.00132820,-0.
 00080858,0.00009443,-0.03573637,0.00308465,-0.00093655,0.00362709,0.00
 218537,0.00233123,0.00655866,-0.00020351,-0.00058067,-0.00021020,0.000
 18298,0.00009153,0.00088209,-0.00006793,-0.00049090,0.00010874,-0.0006
 8960,-0.00023250,0.00049254,0.00033499,0.00016579,-0.00233872,-0.00003
 249,-0.00006850,0.02481073,-0.00047321,-0.00003063,0.00166593,-0.00058
 053,0.00583454,0.00378899,0.00647011,-0.24804420,-0.13354930,-0.002187
 89,-0.01352284,-0.01915700,0.00221610,-0.00385128,0.00164790,-0.000072
 27,-0.00010221,-0.00009868,0.00010384,0.00011210,0.00051268,0.00027447
 ,0.00004853,0.00008982,0.00018514,0.00043163,0.00010324,-0.00003257,0.
 00004866,-0.00077177,-0.00506036,0.25882672,-0.00021683,-0.00026958,-0
 .00600751,0.00087286,-0.02480514,-0.00645008,0.00034958,-0.13309877,-0
 .15371781,0.00121261,0.01002428,0.01119273,-0.00094628,0.00283331,-0.0
 0092498,-0.00035079,0.00002204,0.00052806,-0.00061487,0.00034815,-0.00
 042336,0.00013505,-0.00059797,0.00023916,0.00025587,-0.00145694,-0.000
 15968,0.00006907,0.00077194,0.00074704,-0.00120141,0.14647956,0.154189
 29,0.00005782,-0.00327806,0.00171679,0.00482361,0.00310753,0.00276152,
 0.00186449,0.00361448,-0.00859972,-0.02739554,-0.01169569,0.02042974,-
 0.00151418,0.00365238,-0.00691048,-0.00250452,-0.00114501,0.00656467,-
 0.00157039,0.00057216,-0.00218492,-0.00022794,-0.00039583,0.00011032,0
 .00224121,-0.00003075,0.00006210,0.00049255,0.00018511,-0.00025599,-0.
 00362203,-0.00019784,0.00031058,0.02692671,-0.00108250,-0.00388125,-0.
 00371206,0.00090262,-0.00544580,0.00191488,-0.00310610,0.00053006,0.02
 781746,-0.00660896,-0.07924439,0.07574543,0.00380754,0.00987287,-0.016
 42744,-0.00022007,-0.00007476,-0.00045708,-0.00015873,0.00005850,-0.00
 031209,0.00001554,0.00009065,0.00008603,-0.00003089,0.00109628,-0.0008
 5699,0.00033517,0.00043191,0.00145680,0.00012443,0.00086123,-0.0009586
 8,0.00581719,0.07493153,-0.00063747,-0.00244129,-0.00240808,0.00036324
 ,0.00127279,0.00003689,0.00091216,-0.00234939,-0.00267898,0.01220418,0
 .07939941,-0.32110612,0.00337723,0.00909242,-0.00947055,-0.00080795,0.
 00015413,0.00056938,-0.00046654,-0.00005617,-0.00044795,0.00012408,0.0
 0009066,0.00014497,-0.00006253,0.00085665,-0.00055660,-0.00016599,-0.0
 0010340,-0.00015992,-0.00015543,0.00058691,0.00024866,-0.01496654,-0.0
 8555254,0.33551324,0.00130854,-0.00824480,-0.00066509,0.00033077,-0.00
 020531,0.00269352,0.00032992,-0.00020639,-0.00269423,0.00131113,-0.008
 24801,0.00066735,-0.11185486,0.12360765,-0.00000833,-0.00068145,-0.002
 28775,0.00021019,-0.00068191,-0.00228811,-0.00020934,-0.00140180,0.000
 83039,0.00000002,-0.00006005,0.00044476,-0.00024638,0.00017863,-0.0005
 3905,-0.00009336,0.00017847,-0.00053920,0.00009355,-0.00006004,0.00044
 495,0.00024636,0.12667770,0.00605680,-0.01225362,-0.00227615,0.0006102
 4,-0.00217892,0.00184480,0.00060966,-0.00218003,-0.00184539,0.00606031
 ,-0.01225781,0.00227864,0.11844760,-0.24292639,0.00001143,0.00062022,0
 .00044819,-0.00189392,0.00062078,0.00044878,0.00189367,0.00071946,-0.0
 0023197,-0.00000003,-0.00045711,0.00021452,0.00040035,-0.00051913,-0.0
 0073376,-0.00032880,-0.00051929,-0.00073388,0.00032919,-0.00045732,0.0
 0021464,-0.00040030,-0.12820905,0.26539605,-0.01392717,0.02073159,0.00
 402251,0.00172650,0.00337824,-0.00445530,-0.00172749,-0.00337861,-0.00
 445338,0.01392685,-0.02072682,0.00402422,-0.00000764,0.00001063,-0.048
 49167,0.00032231,-0.00094622,-0.00036135,-0.00032240,0.00094674,-0.000
 36222,0.,-0.00000007,0.00008714,0.00038943,-0.00075810,0.00018098,0.00
 083856,0.00105680,0.00070979,-0.00083845,-0.00105639,0.00071005,-0.000
 38933,0.00075811,0.00018099,0.00000711,-0.00001303,0.04817616,-0.00691
 578,-0.00332741,0.00105781,0.00070754,0.00210405,0.00266110,0.00070710
 ,0.00210353,-0.00266205,-0.00691988,-0.00332958,-0.00105651,-0.2734423
 8,-0.04761211,0.00002551,-0.00087512,-0.00094490,0.00250996,-0.0008762
 3,-0.00094578,-0.00250940,-0.00176942,0.00029906,0.00000016,0.00027664
 ,-0.00044066,0.00047619,-0.00002681,-0.00013359,0.00002172,-0.00002662
 ,-0.00013359,-0.00002171,0.00027670,-0.00044073,-0.00047618,-0.0162446
 3,-0.00255408,0.00000161,0.30455828,-0.01423053,-0.00549132,-0.0001535
 0,-0.00091938,-0.00095472,-0.00136877,-0.00091906,-0.00095475,0.001368
 55,-0.01423605,-0.00549353,0.00015646,-0.05233192,-0.05354379,0.000006
 82,-0.00054737,0.00054377,0.00084487,-0.00054774,0.00054389,-0.0008449
 8,-0.00009901,-0.00148834,0.00000025,0.00038905,0.00041396,0.00012442,
 0.00107380,-0.00011667,0.00007379,0.00107411,-0.00011669,-0.00007396,0
 .00038924,0.00041400,-0.00012462,0.02585321,0.00620715,-0.00000273,0.0
 5611218,0.05944704,0.02391178,0.00976836,-0.00167856,-0.00040468,0.000
 49680,-0.00203809,0.00040431,-0.00049757,-0.00203811,-0.02390803,-0.00
 976711,-0.00167240,0.00002541,0.00000624,-0.03469076,-0.00145848,-0.00
 156259,-0.00075866,0.00145893,0.00156269,-0.00075846,0.00000031,0.0000
 0032,-0.00007792,-0.00081012,-0.00053810,-0.00011799,-0.00106147,-0.00
 000015,-0.00003552,0.00106136,0.00000020,-0.00003568,0.00081002,0.0005
 3798,-0.00011821,-0.00000139,-0.00000041,0.00028080,-0.00002828,-0.000
 00659,0.04326807,-0.00549440,0.00388558,-0.00061558,0.00068628,-0.0023
 3889,-0.00591450,0.00075910,-0.00514161,0.00530697,-0.01183505,0.00839
 791,-0.00300430,0.00204902,0.00094486,0.00000544,-0.03249504,0.0341902
 5,-0.07370493,0.00497955,-0.00408489,0.01383843,0.00641485,-0.00380658
 ,0.00826776,0.00009649,-0.00005514,-0.00002889,0.00006692,-0.00005618,
 -0.00004393,0.00003176,0.00002888,0.00013365,0.00038741,0.00012287,0.0
 0050652,0.00010471,-0.00054501,-0.00026406,0.00019909,-0.00014048,0.00
 017560,0.03637052,-0.00003696,0.00035911,-0.00116518,-0.00029276,-0.00
 039937,0.00028490,-0.00075143,0.00081703,-0.00039063,0.00144158,-0.000
 79701,0.00029453,-0.00000250,0.00037518,0.00016706,0.02909519,-0.14736
 183,0.15443703,-0.00486938,0.00500306,-0.00744162,0.00907504,-0.004371
 19,0.00946355,-0.00025012,0.00004041,-0.00003014,0.00001547,0.00007797
 ,-0.00009257,-0.00000164,-0.00004231,0.00004009,0.00022802,0.00017492,
 -0.00034742,-0.00003783,-0.00003183,0.00001000,0.00000813,0.00003938,-
 0.00003395,-0.03443065,0.14435172,0.00208935,-0.00105390,-0.00060150,-
 0.00005964,0.00011494,0.00198014,-0.00047725,0.00180307,-0.00142164,0.
 00348873,-0.00226737,0.00127439,-0.00054076,0.00012856,-0.00014838,-0.
 05811242,0.14632399,-0.23398132,-0.00415174,0.01732107,-0.01059094,0.0
 0233211,-0.00346571,-0.00239791,-0.00028209,0.00005826,0.00001612,-0.0
 0006837,0.00000845,-0.00002507,0.00003519,-0.00004255,-0.00002053,-0.0
 0012769,-0.00004793,0.00021447,-0.00017268,-0.00008347,-0.00016752,-0.
 00006867,-0.00007642,-0.00001597,0.05551249,-0.15744800,0.24320530,-0.
 01183255,0.00839937,0.00300527,0.00075802,-0.00514363,-0.00530557,0.00
 068667,-0.00233772,0.00591506,-0.00549531,0.00388615,0.00061544,0.0020
 4910,0.00094515,-0.00000606,0.00497672,-0.00409385,-0.01384793,-0.0324
 9976,0.03423023,0.07371149,0.00641400,-0.00381139,-0.00827053,0.000387
 61,0.00012279,-0.00050663,0.00003167,0.00002895,-0.00013369,0.00006708
 ,-0.00005614,0.00004392,0.00009659,-0.00005517,0.00002890,0.00010478,-
 0.00054503,0.00026423,0.00019909,-0.00014055,-0.00017550,-0.00219643,0
 .00139875,0.00099774,0.03637734,0.00143800,-0.00079541,-0.00029399,-0.
 00075100,0.00081576,0.00038916,-0.00029263,-0.00040000,-0.00028285,-0.
 00003876,0.00036033,0.00116509,-0.00000171,0.00037518,-0.00016721,-0.0
 0486602,0.00499981,0.00743785,0.02912437,-0.14746134,-0.15446263,0.009
 07494,-0.00437514,-0.00946487,0.00022839,0.00017489,0.00034739,-0.0000
 0169,-0.00004229,-0.00004013,0.00001555,0.00007796,0.00009257,-0.00025
 000,0.00004041,0.00003021,-0.00003778,-0.00003180,-0.00001009,0.000008
 18,0.00003943,0.00003385,0.00139828,0.00120065,-0.00055404,-0.03445865
 ,0.14445761,-0.00348696,0.00226684,0.00127437,0.00047708,-0.00180300,-
 0.00142011,0.00005969,-0.00011348,0.00197900,-0.00208838,0.00105260,-0
 .00060225,0.00054038,-0.00012865,-0.00014837,0.00415513,-0.01732799,-0
 .01059376,0.05810658,-0.14634767,-0.23386784,-0.00233689,0.00346623,-0
 .00239489,0.00012796,0.00004792,0.00021427,-0.00003523,0.00004257,-0.0
 0002049,0.00006840,-0.00000847,-0.00002515,0.00028227,-0.00005828,0.00
 001604,0.00017269,0.00008348,-0.00016756,0.00006864,0.00007635,-0.0000
 1598,-0.00099852,0.00055406,0.00115743,-0.05550785,0.15747781,0.243092
 37,0.00141083,-0.00016170,0.00034328,0.00022053,0.00000387,0.00010650,
 0.00022022,0.00000382,-0.00010654,0.00141049,-0.00016127,-0.00034350,-
 0.00144241,-0.00071236,0.00000015,-0.00457829,-0.00470419,-0.00049378,
 -0.00458136,-0.00470192,0.00049756,-0.30480414,-0.03447390,0.00003286,
 -0.00010904,-0.00001838,-0.00001273,0.00001995,0.00001735,0.00006092,0
 .00001995,0.00001735,-0.00006090,-0.00010895,-0.00001837,0.00001277,-0
 .00000216,0.00017606,0.,-0.00005213,-0.00011086,0.00000010,0.00046888,
 -0.00003205,-0.00020011,0.00046905,-0.00003159,0.00020003,0.32678662,0
 .00177610,-0.00129643,0.00046543,-0.00036432,0.00101265,0.00062242,-0.
 00036414,0.00101285,-0.00062278,0.00177625,-0.00129626,-0.00046541,-0.
 00103468,-0.00051795,0.00000004,-0.01929710,-0.00904022,-0.00577762,-0
 .01929758,-0.00903575,0.00578748,-0.03454484,-0.05198362,0.00000444,-0
 .00004155,-0.00000739,0.00002099,-0.00003470,0.00007300,-0.00011172,-0
 .00003473,0.00007299,0.00011171,-0.00004150,-0.00000737,-0.00002097,-0
 .00032004,0.00043027,0.,-0.00056660,0.00022995,0.00000010,0.00107856,0
 .00115237,0.00046949,0.00107825,0.00115329,-0.00047003,0.04725470,0.06
 253669,0.00011529,-0.00119709,-0.00035609,0.00031748,-0.00090392,-0.00
 024637,-0.00031747,0.00090408,-0.00024690,-0.00011531,0.00119654,-0.00
 035656,0.00000012,0.00000008,-0.00011807,0.01891225,-0.00172301,0.0043
 9327,-0.01890509,0.00172901,0.00439666,0.00003314,0.00000507,-0.040327
 74,-0.00036361,-0.00003288,0.00003747,-0.00001209,0.00004358,0.0000432
 2,0.00001211,-0.00004359,0.00004318,0.00036365,0.00003290,0.00003740,0
 .00000004,0.,0.00030159,0.00000003,0.00000002,0.00059887,0.00129288,-0
 .00192067,-0.00038696,-0.00129306,0.00192073,-0.00038752,-0.00003868,-
 0.00001026,0.03241669,0.00123449,0.00002917,-0.00026108,0.00064995,-0.
 00046304,-0.00254519,0.00064876,-0.00046453,0.00254618,0.00123198,0.00
 003096,0.00026056,-0.00162469,-0.00041719,0.00000017,0.00526057,-0.005
 27424,0.00165166,0.00526008,-0.00528009,-0.00165379,-0.13518439,0.1135
 7832,-0.00000589,-0.00016370,0.00015119,0.00003681,-0.00065256,0.00003
 775,0.00006403,-0.00065186,0.00003772,-0.00006396,-0.00016349,0.000151
 19,-0.00003681,0.00046224,-0.00011510,-0.00000008,0.00022457,-0.000668
 64,0.00000012,-0.00059367,-0.00055685,-0.00019419,-0.00059369,-0.00055
 788,0.00019497,-0.01534805,0.02297791,-0.00000170,0.14000345,0.0014974
 0,-0.00115415,-0.00036200,-0.00089397,0.00143925,0.00164577,-0.0008932
 5,0.00143926,-0.00164613,0.00149739,-0.00115466,0.00036229,0.00062365,
 0.00042626,-0.00000007,0.00106365,-0.02119746,-0.00091415,0.00106795,-
 0.02120269,0.00091772,0.12037781,-0.20060597,0.00001408,-0.00007401,-0
 .00006344,0.00008710,0.00023490,0.00012971,-0.00020836,0.00023485,0.00
 012967,0.00020823,-0.00007412,-0.00006342,-0.00008707,-0.00001765,0.00
 020039,-0.00000005,-0.00020610,0.00028124,-0.00000008,0.00055223,-0.00
 058826,-0.00118846,0.00055250,-0.00058935,0.00118970,-0.00234657,0.005
 51093,-0.00000059,-0.12319666,0.23706268,0.00233755,-0.00002523,-0.000
 14408,-0.00001114,0.00055669,0.00047085,0.00001184,-0.00055713,0.00047
 162,-0.00233855,0.00002595,-0.00014361,0.00000030,0.00000002,0.0002170
 6,-0.01137841,0.01894032,-0.00361322,0.01137638,-0.01893491,-0.0036099
 8,-0.00000788,0.00001557,-0.03326724,-0.00002299,-0.00003354,-0.000015
 63,-0.00068603,0.00014737,-0.00013324,0.00068590,-0.00014748,-0.000133
 39,0.00002299,0.00003350,-0.00001562,-0.00000002,-0.00000006,-0.000215
 22,0.00000008,0.00000003,-0.00009541,-0.00046504,0.00361898,0.00190990
 ,0.00046477,-0.00361886,0.00191044,0.00000205,-0.00000330,0.00015787,0
 .00000818,-0.00001792,0.03624890\\0.00004205,-0.00002538,0.00003394,-0
 .00001771,0.00000659,0.00007369,-0.00001805,0.00000779,-0.00006905,0.0
 0004722,-0.00002142,-0.00003685,-0.00000257,0.00000986,-0.00000179,0.0
 0007834,-0.00003599,0.00001554,0.00005480,-0.00003604,-0.00002249,-0.0
 0008598,0.00011717,0.00000137,-0.00000894,0.00000691,0.00000256,-0.000
 00849,-0.00000038,0.00000587,-0.00000827,-0.00000054,-0.00000531,-0.00
 000986,0.00000706,-0.00000274,0.00000075,-0.00000053,0.,0.00000186,-0.
 00000039,-0.00000023,-0.00005265,-0.00002244,0.00000419,-0.00004206,-0
 .00002293,0.00000139,-0.00001601,0.00001168,0.00000122,0.00004556,-0.0
 0000102,-0.00000130\\\@
 The archive entry for this job was punched.


 ABALONE: AN EXPRESSION OF DISBELIEF.
 Job cpu time:       0 days  0 hours 51 minutes 41.1 seconds.
 Elapsed time:       0 days  0 hours  3 minutes 17.1 seconds.
 File lengths (MBytes):  RWF=    142 Int=      0 D2E=      0 Chk=      9 Scr=      1
 Normal termination of Gaussian 16 at Tue Sep  6 23:06:58 2022.
