Job Start Time: Tue Sep  6 23:07:00 MDT 2022
SLURM Job ID: 71237
SLURM Job Name: TS2_crest_conf_1_man
 Entering Gaussian System, Link 0=/opt/apps/Gaussian/G16C/g16/g16
 Initial command:
 /opt/apps/Gaussian/G16C/g16/l1.exe "/tmp/Gau-2855044.inp" -scrdir="/tmp/"
 Entering Link 1 = /opt/apps/Gaussian/G16C/g16/l1.exe PID=   2855045.
  
 Copyright (c) 1988-2019, Gaussian, Inc.  All Rights Reserved.
  
 This is part of the Gaussian(R) 16 program.  It is based on
 the Gaussian(R) 09 system (copyright 2009, Gaussian, Inc.),
 the Gaussian(R) 03 system (copyright 2003, Gaussian, Inc.),
 the Gaussian(R) 98 system (copyright 1998, Gaussian, Inc.),
 the Gaussian(R) 94 system (copyright 1995, Gaussian, Inc.),
 the Gaussian 92(TM) system (copyright 1992, Gaussian, Inc.),
 the Gaussian 90(TM) system (copyright 1990, Gaussian, Inc.),
 the Gaussian 88(TM) system (copyright 1988, Gaussian, Inc.),
 the Gaussian 86(TM) system (copyright 1986, Carnegie Mellon
 University), and the Gaussian 82(TM) system (copyright 1983,
 Carnegie Mellon University). Gaussian is a federally registered
 trademark of Gaussian, Inc.
  
 This software contains proprietary and confidential information,
 including trade secrets, belonging to Gaussian, Inc.
  
 This software is provided under written license and may be
 used, copied, transmitted, or stored only in accord with that
 written license.
  
 The following legend is applicable only to US Government
 contracts under FAR:
  
                    RESTRICTED RIGHTS LEGEND
  
 Use, reproduction and disclosure by the US Government is
 subject to restrictions as set forth in subparagraphs (a)
 and (c) of the Commercial Computer Software - Restricted
 Rights clause in FAR 52.227-19.
  
 Gaussian, Inc.
 340 Quinnipiac St., Bldg. 40, Wallingford CT 06492
  
  
 ---------------------------------------------------------------
 Warning -- This program may not be used in any manner that
 competes with the business of Gaussian, Inc. or will provide
 assistance to any competitor of Gaussian, Inc.  The licensee
 of this program is prohibited from giving any competitor of
 Gaussian, Inc. access to this program.  By using this program,
 the user acknowledges that Gaussian, Inc. is engaged in the
 business of creating and licensing software in the field of
 computational chemistry and represents and warrants to the
 licensee that it is not a competitor of Gaussian, Inc. and that
 it will not use this program in any manner prohibited above.
 ---------------------------------------------------------------
  

 Cite this work as:
 Gaussian 16, Revision C.01,
 M. J. Frisch, G. W. Trucks, H. B. Schlegel, G. E. Scuseria, 
 M. A. Robb, J. R. Cheeseman, G. Scalmani, V. Barone, 
 G. A. Petersson, H. Nakatsuji, X. Li, M. Caricato, A. V. Marenich, 
 J. Bloino, B. G. Janesko, R. Gomperts, B. Mennucci, H. P. Hratchian, 
 J. V. Ortiz, A. F. Izmaylov, J. L. Sonnenberg, D. Williams-Young, 
 F. Ding, F. Lipparini, F. Egidi, J. Goings, B. Peng, A. Petrone, 
 T. Henderson, D. Ranasinghe, V. G. Zakrzewski, J. Gao, N. Rega, 
 G. Zheng, W. Liang, M. Hada, M. Ehara, K. Toyota, R. Fukuda, 
 J. Hasegawa, M. Ishida, T. Nakajima, Y. Honda, O. Kitao, H. Nakai, 
 T. Vreven, K. Throssell, J. A. Montgomery, Jr., J. E. Peralta, 
 F. Ogliaro, M. J. Bearpark, J. J. Heyd, E. N. Brothers, K. N. Kudin, 
 V. N. Staroverov, T. A. Keith, R. Kobayashi, J. Normand, 
 K. Raghavachari, A. P. Rendell, J. C. Burant, S. S. Iyengar, 
 J. Tomasi, M. Cossi, J. M. Millam, M. Klene, C. Adamo, R. Cammi, 
 J. W. Ochterski, R. L. Martin, K. Morokuma, O. Farkas, 
 J. B. Foresman, and D. J. Fox, Gaussian, Inc., Wallingford CT, 2019.
 
 ******************************************
 Gaussian 16:  AS64L-G16RevC.01  3-Jul-2019
                 6-Sep-2022 
 ******************************************
 %nprocshared=16
 Will use up to   16 processors via shared memory.
 %mem=72GB
 ---------------------------------------------
 # opt=(calcfc,ts,noeigen) freq b3lyp def2tzvp
 ---------------------------------------------
 1/5=1,10=4,11=1,18=20,26=3,38=1/1,3;
 2/9=110,12=2,17=6,18=5,40=1/2;
 3/5=44,7=101,11=2,25=1,30=1,71=2,74=-5,140=1/1,2,3;
 4//1;
 5/5=2,38=5/2;
 8/6=4,10=90,11=11/1;
 11/6=1,8=1,9=11,15=111,16=1/1,2,10;
 10/6=1,13=1/2;
 6/7=2,8=2,9=2,10=2,28=1/1;
 7/10=1,25=1/1,2,3,16;
 1/5=1,10=4,11=1,18=20,26=3/3(2);
 2/9=110/2;
 99//99;
 2/9=110/2;
 3/5=44,7=101,11=2,25=1,30=1,71=1,74=-5/1,2,3;
 4/5=5,16=3,69=1/1;
 5/5=2,38=5/2;
 7//1,2,3,16;
 1/5=1,11=1,18=20,26=3/3(-5);
 2/9=110/2;
 6/7=2,8=2,9=2,10=2,19=2,28=1/1;
 99/9=1/99;
 ----------------
 TS2_crest_conf_1
 ----------------
 Symbolic Z-matrix:
 Charge =  0 Multiplicity = 1
 C                    -0.63114  -1.10686   0.30243 
 C                    -1.81969  -0.7722   -0.45601 
 C                    -1.8198    0.6635   -0.4559 
 C                    -0.6754    1.08807   0.27419 
 C                    -0.5301    0.        1.3662 
 C                     1.01942  -0.63402  -0.95832 
 C                     1.01942   0.89958  -0.95832 
 C                     2.42872   0.90138  -0.33762 
 C                     2.42872  -0.63582  -0.33762 
 H                    -0.64194  -2.13326   0.66393 
 H                    -2.49389  -1.4384   -0.96261 
 H                    -2.4941    1.3297   -0.9624 
 H                    -0.6862    2.11447   0.63569 
 H                    -1.3933    0.        2.0309 
 H                     0.3793    0.        1.96 
 H                     0.94402  -1.14252  -1.91932 
 H                     0.94402   1.40808  -1.91932 
 H                     2.49392   1.37068   0.64208 
 H                     3.18702   1.34048  -0.98292 
 H                     2.49382  -1.10502   0.64218 
 H                     3.18702  -1.07502  -0.98272 
 
 Add virtual bond connecting atoms C6         and C1         Dist= 4.03D+00.
 Add virtual bond connecting atoms C7         and C4         Dist= 3.98D+00.

 GradGradGradGradGradGradGradGradGradGradGradGradGradGradGradGradGradGrad
 Berny optimization.
 Initialization pass.
                           ----------------------------
                           !    Initial Parameters    !
                           ! (Angstroms and Degrees)  !
 --------------------------                            --------------------------
 ! Name  Definition              Value          Derivative Info.                !
 --------------------------------------------------------------------------------
 ! R1    R(1,2)                  1.4491         calculate D2E/DX2 analytically  !
 ! R2    R(1,5)                  1.5385         calculate D2E/DX2 analytically  !
 ! R3    R(1,6)                  2.1301         calculate D2E/DX2 analytically  !
 ! R4    R(1,10)                 1.0883         calculate D2E/DX2 analytically  !
 ! R5    R(2,3)                  1.4357         calculate D2E/DX2 analytically  !
 ! R6    R(2,11)                 1.0747         calculate D2E/DX2 analytically  !
 ! R7    R(3,4)                  1.4223         calculate D2E/DX2 analytically  !
 ! R8    R(3,12)                 1.0747         calculate D2E/DX2 analytically  !
 ! R9    R(4,5)                  1.5484         calculate D2E/DX2 analytically  !
 ! R10   R(4,7)                  2.1041         calculate D2E/DX2 analytically  !
 ! R11   R(4,13)                 1.0883         calculate D2E/DX2 analytically  !
 ! R12   R(5,14)                 1.0895         calculate D2E/DX2 analytically  !
 ! R13   R(5,15)                 1.0861         calculate D2E/DX2 analytically  !
 ! R14   R(6,7)                  1.5336         calculate D2E/DX2 analytically  !
 ! R15   R(6,9)                  1.5399         calculate D2E/DX2 analytically  !
 ! R16   R(6,16)                 1.0899         calculate D2E/DX2 analytically  !
 ! R17   R(7,8)                  1.5399         calculate D2E/DX2 analytically  !
 ! R18   R(7,17)                 1.0899         calculate D2E/DX2 analytically  !
 ! R19   R(8,9)                  1.5372         calculate D2E/DX2 analytically  !
 ! R20   R(8,18)                 1.0883         calculate D2E/DX2 analytically  !
 ! R21   R(8,19)                 1.0882         calculate D2E/DX2 analytically  !
 ! R22   R(9,20)                 1.0883         calculate D2E/DX2 analytically  !
 ! R23   R(9,21)                 1.0881         calculate D2E/DX2 analytically  !
 ! A1    A(2,1,5)              104.4541         calculate D2E/DX2 analytically  !
 ! A2    A(2,1,6)              105.9326         calculate D2E/DX2 analytically  !
 ! A3    A(2,1,10)             112.5529         calculate D2E/DX2 analytically  !
 ! A4    A(5,1,6)              101.4582         calculate D2E/DX2 analytically  !
 ! A5    A(5,1,10)             116.7129         calculate D2E/DX2 analytically  !
 ! A6    A(6,1,10)             114.435          calculate D2E/DX2 analytically  !
 ! A7    A(1,2,3)              103.3538         calculate D2E/DX2 analytically  !
 ! A8    A(1,2,11)             128.1771         calculate D2E/DX2 analytically  !
 ! A9    A(3,2,11)             128.3069         calculate D2E/DX2 analytically  !
 ! A10   A(2,3,4)              107.3667         calculate D2E/DX2 analytically  !
 ! A11   A(2,3,12)             128.308          calculate D2E/DX2 analytically  !
 ! A12   A(4,3,12)             124.1735         calculate D2E/DX2 analytically  !
 ! A13   A(3,4,5)              103.1653         calculate D2E/DX2 analytically  !
 ! A14   A(3,4,7)              108.7042         calculate D2E/DX2 analytically  !
 ! A15   A(3,4,13)             116.3641         calculate D2E/DX2 analytically  !
 ! A16   A(5,4,7)              105.9373         calculate D2E/DX2 analytically  !
 ! A17   A(5,4,13)             115.4314         calculate D2E/DX2 analytically  !
 ! A18   A(7,4,13)             106.6827         calculate D2E/DX2 analytically  !
 ! A19   A(1,5,4)               90.6738         calculate D2E/DX2 analytically  !
 ! A20   A(1,5,14)             111.7047         calculate D2E/DX2 analytically  !
 ! A21   A(1,5,15)             115.6592         calculate D2E/DX2 analytically  !
 ! A22   A(4,5,14)             110.8507         calculate D2E/DX2 analytically  !
 ! A23   A(4,5,15)             117.6558         calculate D2E/DX2 analytically  !
 ! A24   A(14,5,15)            109.2594         calculate D2E/DX2 analytically  !
 ! A25   A(1,6,7)              102.8253         calculate D2E/DX2 analytically  !
 ! A26   A(1,6,9)              118.0543         calculate D2E/DX2 analytically  !
 ! A27   A(1,6,16)             111.3901         calculate D2E/DX2 analytically  !
 ! A28   A(7,6,9)               90.067          calculate D2E/DX2 analytically  !
 ! A29   A(7,6,16)             117.8123         calculate D2E/DX2 analytically  !
 ! A30   A(9,6,16)             114.72           calculate D2E/DX2 analytically  !
 ! A31   A(4,7,6)               95.1395         calculate D2E/DX2 analytically  !
 ! A32   A(4,7,8)              120.0633         calculate D2E/DX2 analytically  !
 ! A33   A(4,7,17)             114.7715         calculate D2E/DX2 analytically  !
 ! A34   A(6,7,8)               90.067          calculate D2E/DX2 analytically  !
 ! A35   A(6,7,17)             117.8123         calculate D2E/DX2 analytically  !
 ! A36   A(8,7,17)             114.72           calculate D2E/DX2 analytically  !
 ! A37   A(7,8,9)               89.933          calculate D2E/DX2 analytically  !
 ! A38   A(7,8,18)             114.7207         calculate D2E/DX2 analytically  !
 ! A39   A(7,8,19)             113.5262         calculate D2E/DX2 analytically  !
 ! A40   A(9,8,18)             115.5463         calculate D2E/DX2 analytically  !
 ! A41   A(9,8,19)             113.7972         calculate D2E/DX2 analytically  !
 ! A42   A(18,8,19)            108.5467         calculate D2E/DX2 analytically  !
 ! A43   A(6,9,8)               89.933          calculate D2E/DX2 analytically  !
 ! A44   A(6,9,20)             114.7167         calculate D2E/DX2 analytically  !
 ! A45   A(6,9,21)             113.5326         calculate D2E/DX2 analytically  !
 ! A46   A(8,9,20)             115.5394         calculate D2E/DX2 analytically  !
 ! A47   A(8,9,21)             113.8047         calculate D2E/DX2 analytically  !
 ! A48   A(20,9,21)            108.5443         calculate D2E/DX2 analytically  !
 ! D1    D(5,1,2,3)             34.4272         calculate D2E/DX2 analytically  !
 ! D2    D(5,1,2,11)          -149.9376         calculate D2E/DX2 analytically  !
 ! D3    D(6,1,2,3)            -72.2468         calculate D2E/DX2 analytically  !
 ! D4    D(6,1,2,11)           103.3883         calculate D2E/DX2 analytically  !
 ! D5    D(10,1,2,3)           161.9951         calculate D2E/DX2 analytically  !
 ! D6    D(10,1,2,11)          -22.3697         calculate D2E/DX2 analytically  !
 ! D7    D(2,1,5,4)            -50.8511         calculate D2E/DX2 analytically  !
 ! D8    D(2,1,5,14)            61.9667         calculate D2E/DX2 analytically  !
 ! D9    D(2,1,5,15)          -172.2253         calculate D2E/DX2 analytically  !
 ! D10   D(6,1,5,4)             59.1165         calculate D2E/DX2 analytically  !
 ! D11   D(6,1,5,14)           171.9344         calculate D2E/DX2 analytically  !
 ! D12   D(6,1,5,15)           -62.2576         calculate D2E/DX2 analytically  !
 ! D13   D(10,1,5,4)          -175.8185         calculate D2E/DX2 analytically  !
 ! D14   D(10,1,5,14)          -63.0006         calculate D2E/DX2 analytically  !
 ! D15   D(10,1,5,15)           62.8074         calculate D2E/DX2 analytically  !
 ! D16   D(2,1,6,7)             71.8623         calculate D2E/DX2 analytically  !
 ! D17   D(2,1,6,9)            168.9093         calculate D2E/DX2 analytically  !
 ! D18   D(2,1,6,16)           -55.229          calculate D2E/DX2 analytically  !
 ! D19   D(5,1,6,7)            -36.9651         calculate D2E/DX2 analytically  !
 ! D20   D(5,1,6,9)             60.0819         calculate D2E/DX2 analytically  !
 ! D21   D(5,1,6,16)          -164.0564         calculate D2E/DX2 analytically  !
 ! D22   D(10,1,6,7)          -163.5405         calculate D2E/DX2 analytically  !
 ! D23   D(10,1,6,9)           -66.4935         calculate D2E/DX2 analytically  !
 ! D24   D(10,1,6,16)           69.3682         calculate D2E/DX2 analytically  !
 ! D25   D(1,2,3,4)              0.0092         calculate D2E/DX2 analytically  !
 ! D26   D(1,2,3,12)           175.6273         calculate D2E/DX2 analytically  !
 ! D27   D(11,2,3,4)          -175.6181         calculate D2E/DX2 analytically  !
 ! D28   D(11,2,3,12)            0.0            calculate D2E/DX2 analytically  !
 ! D29   D(2,3,4,5)            -33.9776         calculate D2E/DX2 analytically  !
 ! D30   D(2,3,4,7)             78.165          calculate D2E/DX2 analytically  !
 ! D31   D(2,3,4,13)          -161.4333         calculate D2E/DX2 analytically  !
 ! D32   D(12,3,4,5)           150.178          calculate D2E/DX2 analytically  !
 ! D33   D(12,3,4,7)           -97.6793         calculate D2E/DX2 analytically  !
 ! D34   D(12,3,4,13)           22.7223         calculate D2E/DX2 analytically  !
 ! D35   D(3,4,5,1)             50.0494         calculate D2E/DX2 analytically  !
 ! D36   D(3,4,5,14)           -63.5442         calculate D2E/DX2 analytically  !
 ! D37   D(3,4,5,15)           169.7234         calculate D2E/DX2 analytically  !
 ! D38   D(7,4,5,1)            -64.1114         calculate D2E/DX2 analytically  !
 ! D39   D(7,4,5,14)          -177.705          calculate D2E/DX2 analytically  !
 ! D40   D(7,4,5,15)            55.5626         calculate D2E/DX2 analytically  !
 ! D41   D(13,4,5,1)           178.0899         calculate D2E/DX2 analytically  !
 ! D42   D(13,4,5,14)           64.4963         calculate D2E/DX2 analytically  !
 ! D43   D(13,4,5,15)          -62.236          calculate D2E/DX2 analytically  !
 ! D44   D(3,4,7,6)            -69.7036         calculate D2E/DX2 analytically  !
 ! D45   D(3,4,7,8)           -162.7657         calculate D2E/DX2 analytically  !
 ! D46   D(3,4,7,17)            54.1753         calculate D2E/DX2 analytically  !
 ! D47   D(5,4,7,6)             40.5853         calculate D2E/DX2 analytically  !
 ! D48   D(5,4,7,8)            -52.4768         calculate D2E/DX2 analytically  !
 ! D49   D(5,4,7,17)           164.4642         calculate D2E/DX2 analytically  !
 ! D50   D(13,4,7,6)           164.0757         calculate D2E/DX2 analytically  !
 ! D51   D(13,4,7,8)            71.0137         calculate D2E/DX2 analytically  !
 ! D52   D(13,4,7,17)          -72.0454         calculate D2E/DX2 analytically  !
 ! D53   D(1,6,7,4)             -1.3484         calculate D2E/DX2 analytically  !
 ! D54   D(1,6,7,8)            118.8559         calculate D2E/DX2 analytically  !
 ! D55   D(1,6,7,17)          -122.8877         calculate D2E/DX2 analytically  !
 ! D56   D(9,6,7,4)           -120.2042         calculate D2E/DX2 analytically  !
 ! D57   D(9,6,7,8)              0.0            calculate D2E/DX2 analytically  !
 ! D58   D(9,6,7,17)           118.2564         calculate D2E/DX2 analytically  !
 ! D59   D(16,6,7,4)           121.5393         calculate D2E/DX2 analytically  !
 ! D60   D(16,6,7,8)          -118.2564         calculate D2E/DX2 analytically  !
 ! D61   D(16,6,7,17)            0.0            calculate D2E/DX2 analytically  !
 ! D62   D(1,6,9,8)           -104.6051         calculate D2E/DX2 analytically  !
 ! D63   D(1,6,9,20)            13.694          calculate D2E/DX2 analytically  !
 ! D64   D(1,6,9,21)           139.3085         calculate D2E/DX2 analytically  !
 ! D65   D(7,6,9,8)              0.0            calculate D2E/DX2 analytically  !
 ! D66   D(7,6,9,20)           118.2991         calculate D2E/DX2 analytically  !
 ! D67   D(7,6,9,21)          -116.0863         calculate D2E/DX2 analytically  !
 ! D68   D(16,6,9,8)           120.943          calculate D2E/DX2 analytically  !
 ! D69   D(16,6,9,20)         -120.7579         calculate D2E/DX2 analytically  !
 ! D70   D(16,6,9,21)            4.8566         calculate D2E/DX2 analytically  !
 ! D71   D(4,7,8,9)             95.9801         calculate D2E/DX2 analytically  !
 ! D72   D(4,7,8,18)           -22.3278         calculate D2E/DX2 analytically  !
 ! D73   D(4,7,8,19)          -147.9433         calculate D2E/DX2 analytically  !
 ! D74   D(6,7,8,9)              0.0            calculate D2E/DX2 analytically  !
 ! D75   D(6,7,8,18)          -118.3079         calculate D2E/DX2 analytically  !
 ! D76   D(6,7,8,19)           116.0766         calculate D2E/DX2 analytically  !
 ! D77   D(17,7,8,9)          -120.943          calculate D2E/DX2 analytically  !
 ! D78   D(17,7,8,18)          120.7492         calculate D2E/DX2 analytically  !
 ! D79   D(17,7,8,19)           -4.8664         calculate D2E/DX2 analytically  !
 ! D80   D(7,8,9,6)              0.0            calculate D2E/DX2 analytically  !
 ! D81   D(7,8,9,20)          -117.5715         calculate D2E/DX2 analytically  !
 ! D82   D(7,8,9,21)           115.8414         calculate D2E/DX2 analytically  !
 ! D83   D(18,8,9,6)           117.5777         calculate D2E/DX2 analytically  !
 ! D84   D(18,8,9,20)            0.0062         calculate D2E/DX2 analytically  !
 ! D85   D(18,8,9,21)         -126.581          calculate D2E/DX2 analytically  !
 ! D86   D(19,8,9,6)          -115.8326         calculate D2E/DX2 analytically  !
 ! D87   D(19,8,9,20)          126.5959         calculate D2E/DX2 analytically  !
 ! D88   D(19,8,9,21)            0.0088         calculate D2E/DX2 analytically  !
 --------------------------------------------------------------------------------
 Trust Radius=3.00D-01 FncErr=1.00D-07 GrdErr=1.00D-06 EigMax=2.50D+02 EigMin=1.00D-04
 Number of steps in this run=    126 maximum allowed number of steps=    126.
 Search for a saddle point of order  1.
 GradGradGradGradGradGradGradGradGradGradGradGradGradGradGradGradGradGrad

                          Input orientation:                          
 ---------------------------------------------------------------------
 Center     Atomic      Atomic             Coordinates (Angstroms)
 Number     Number       Type             X           Y           Z
 ---------------------------------------------------------------------
      1          6           0       -0.631136   -1.106857    0.302431
      2          6           0       -1.819692   -0.772200   -0.456008
      3          6           0       -1.819800    0.663500   -0.455900
      4          6           0       -0.675404    1.088069    0.274193
      5          6           0       -0.530100    0.000000    1.366200
      6          6           0        1.019420   -0.634016   -0.958324
      7          6           0        1.019420    0.899584   -0.958324
      8          6           0        2.428720    0.901384   -0.337624
      9          6           0        2.428720   -0.635816   -0.337624
     10          1           0       -0.641936   -2.133257    0.663931
     11          1           0       -2.493892   -1.438400   -0.962608
     12          1           0       -2.494100    1.329700   -0.962400
     13          1           0       -0.686204    2.114469    0.635693
     14          1           0       -1.393300    0.000000    2.030900
     15          1           0        0.379300    0.000000    1.960000
     16          1           0        0.944020   -1.142516   -1.919324
     17          1           0        0.944020    1.408084   -1.919324
     18          1           0        2.493920    1.370684    0.642076
     19          1           0        3.187020    1.340484   -0.982924
     20          1           0        2.493820   -1.105016    0.642176
     21          1           0        3.187020   -1.075016   -0.982724
 ---------------------------------------------------------------------
                    Distance matrix (angstroms):
                    1          2          3          4          5
     1  C    0.000000
     2  C    1.449100   0.000000
     3  C    2.263217   1.435700   0.000000
     4  C    2.195554   2.302866   1.422300   0.000000
     5  C    1.538488   2.362156   2.328864   1.548382   0.000000
     6  C    2.130121   2.886515   3.161827   2.712398   2.864682
     7  C    2.887844   3.332827   2.892980   2.104056   2.934907
     8  C    3.715564   4.567702   4.256818   3.169346   3.531307
     9  C    3.161371   4.252249   4.444337   3.603010   3.473024
    10  H    1.088254   2.119870   3.234692   3.244989   2.248660
    11  H    2.275985   1.074715   2.264760   3.349570   3.368801
    12  H    3.317716   2.264783   1.074730   2.212511   3.323819
    13  H    3.238987   3.287775   2.140544   1.088254   2.242541
    14  H    2.189436   2.638715   2.608890   2.187530   1.089468
    15  H    2.234647   3.356926   3.333594   2.266769   1.086097
    16  H    2.723708   3.149052   3.611372   3.522721   3.777968
    17  H    3.707052   3.812222   3.214765   2.745262   3.866575
    18  H    4.002441   4.940140   4.507088   3.203096   3.398209
    19  H    4.713802   5.459692   5.079794   4.069690   4.596984
    20  H    3.143370   4.463536   4.789649   3.871565   3.299904
    21  H    4.028765   5.043440   5.326183   4.601858   4.526598
                    6          7          8          9         10
     6  C    0.000000
     7  C    1.533600   0.000000
     8  C    2.174591   1.539934   0.000000
     9  C    1.539934   2.174591   1.537200   0.000000
    10  H    2.763971   3.819678   4.431826   3.560108   0.000000
    11  H    3.604221   4.220136   5.486101   5.026614   2.560898
    12  H    4.025049   3.539751   4.980758   5.337392   4.250592
    13  H    3.606136   2.631727   3.481619   4.267806   4.248050
    14  H    3.893412   3.945368   4.585874   4.541146   2.642714
    15  H    3.054234   3.120196   3.208067   3.143797   2.696943
    16  H    1.089852   2.258180   2.980543   2.227746   3.189048
    17  H    2.258180   1.089852   2.227746   2.980543   4.661497
    18  H    2.958759   2.226514   1.088258   2.233854   4.702304
    19  H    2.932191   2.212123   1.088228   2.212960   5.425855
    20  H    2.226499   2.958695   2.233805   1.088299   3.300108
    21  H    2.212141   2.932257   2.212991   1.088150   4.300261
                   11         12         13         14         15
    11  H    0.000000
    12  H    2.768100   0.000000
    13  H    4.294785   2.537371   0.000000
    14  H    3.498770   3.455388   2.630127   0.000000
    15  H    4.343485   4.308706   2.712944   1.774017   0.000000
    16  H    3.580795   4.341454   4.449011   4.729977   4.083309
    17  H    4.564758   3.569666   3.112029   4.801045   4.165425
    18  H    5.945101   5.239882   3.265952   4.349493   2.843821
    19  H    6.324189   5.681167   4.268587   5.644410   4.282638
    20  H    5.250118   5.777703   4.525227   4.273092   2.725604
    21  H    5.692557   6.169132   5.271997   5.587211   4.206968
                   16         17         18         19         20
    16  H    0.000000
    17  H    2.550600   0.000000
    18  H    3.908853   2.994054   0.000000
    19  H    3.474649   2.431556   1.766897   0.000000
    20  H    2.994089   3.908815   2.475700   3.016943   0.000000
    21  H    2.431630   3.474774   3.016921   2.415500   1.766841
                   21
    21  H    0.000000
 Stoichiometry    C9H12
 Framework group  C1[X(C9H12)]
 Deg. of freedom    57
 Full point group                 C1      NOp   1
 Largest Abelian subgroup         C1      NOp   1
 Largest concise Abelian subgroup C1      NOp   1
                         Standard orientation:                         
 ---------------------------------------------------------------------
 Center     Atomic      Atomic             Coordinates (Angstroms)
 Number     Number       Type             X           Y           Z
 ---------------------------------------------------------------------
      1          6           0       -0.983431   -1.110329    0.258284
      2          6           0       -2.017404   -0.651872   -0.647590
      3          6           0       -1.924830    0.778158   -0.559968
      4          6           0       -0.881030    1.080585    0.357614
      5          6           0       -0.975583   -0.068904    1.390678
      6          6           0        0.868090   -0.696353   -0.710174
      7          6           0        0.967109    0.831188   -0.616673
      8          6           0        2.261605    0.698678    0.206805
      9          6           0        2.162355   -0.832449    0.113086
     10          1           0       -1.115825   -2.150125    0.550843
     11          1           0       -2.647467   -1.240612   -1.289009
     12          1           0       -2.468979    1.516557   -1.120070
     13          1           0       -0.880884    2.085478    0.775328
     14          1           0       -1.928739   -0.039367    1.917520
     15          1           0       -0.169997   -0.165320    2.112719
     16          1           0        0.908383   -1.148844   -1.700834
     17          1           0        1.073065    1.391679   -1.545329
     18          1           0        2.205854    1.111926    1.212004
     19          1           0        3.136699    1.113192   -0.289812
     20          1           0        2.045895   -1.353991    1.061150
     21          1           0        2.980709   -1.292775   -0.436883
 ---------------------------------------------------------------------
 Rotational constants (GHZ):           3.2059568           1.3362859           1.2506833
 Standard basis: def2TZVP (5D, 7F)
 There are   396 symmetry adapted cartesian basis functions of A   symmetry.
 There are   351 symmetry adapted basis functions of A   symmetry.
   351 basis functions,   555 primitive gaussians,   396 cartesian basis functions
    33 alpha electrons       33 beta electrons
       nuclear repulsion energy       435.9764995976 Hartrees.
 NAtoms=   21 NActive=   21 NUniq=   21 SFac= 1.00D+00 NAtFMM=   60 NAOKFM=F Big=F
 Integral buffers will be    131072 words long.
 Raffenetti 2 integral format.
 Two-electron integral symmetry is turned on.
 One-electron integrals computed using PRISM.
   1 Symmetry operations used in ECPInt.
 ECPInt:  NShTT=   10878 NPrTT=   32112 LenC2=   10702 LenP2D=   25499.
 LDataN:  DoStor=T MaxTD1= 6 Len=  172
 NBasis=   351 RedAO= T EigKep=  3.66D-05  NBF=   351
 NBsUse=   351 1.00D-06 EigRej= -1.00D+00 NBFU=   351
 ExpMin= 9.52D-02 ExpMax= 1.36D+04 ExpMxC= 4.63D+02 IAcc=3 IRadAn=         5 AccDes= 0.00D+00
 Harris functional with IExCor=  402 and IRadAn=       5 diagonalized for initial guess.
 HarFok:  IExCor=  402 AccDes= 0.00D+00 IRadAn=         5 IDoV= 1 UseB2=F ITyADJ=14
 ICtDFT=  3500011 ScaDFX=  1.000000  1.000000  1.000000  1.000000
 FoFCou: FMM=F IPFlag=           0 FMFlag=      100000 FMFlg1=           0
         NFxFlg=           0 DoJE=T BraDBF=F KetDBF=T FulRan=T
         wScrn=  0.000000 ICntrl=       500 IOpCl=  0 I1Cent=   200000004 NGrid=           0
         NMat0=    1 NMatS0=      1 NMatT0=    0 NMatD0=    1 NMtDS0=    0 NMtDT0=    0
 Petite list used in FoFCou.
 Requested convergence on RMS density matrix=1.00D-08 within 128 cycles.
 Requested convergence on MAX density matrix=1.00D-06.
 Requested convergence on             energy=1.00D-06.
 No special actions if energy rises.
 Integral accuracy reduced to 1.0D-05 until final iterations.
 Initial convergence to 1.0D-05 achieved.  Increase integral accuracy.
 SCF Done:  E(RB3LYP) =  -350.128354960     A.U. after   14 cycles
            NFock= 14  Conv=0.72D-08     -V/T= 2.0069
 DoSCS=F DFT=T ScalE2(SS,OS)=  1.000000  1.000000
 Range of M.O.s used for correlation:     1   351
 NBasis=   351 NAE=    33 NBE=    33 NFC=     0 NFV=     0
 NROrb=    351 NOA=    33 NOB=    33 NVA=   318 NVB=   318

 **** Warning!!: The largest alpha MO coefficient is  0.28750521D+02

   1 Symmetry operations used in ECPInt.
 ECPInt:  NShTT=   10878 NPrTT=   32112 LenC2=   10702 LenP2D=   25499.
 LDataN:  DoStor=T MaxTD1= 7 Len=  274
 Symmetrizing basis deriv contribution to polar:
 IMax=3 JMax=2 DiffMx= 0.00D+00
 G2DrvN: will do    22 centers at a time, making    1 passes.
 Calling FoFCou, ICntrl=  3107 FMM=F I1Cent=   0 AccDes= 0.00D+00.
 End of G2Drv F.D. properties file   721 does not exist.
 End of G2Drv F.D. properties file   722 does not exist.
 End of G2Drv F.D. properties file   788 does not exist.
          IDoAtm=111111111111111111111
          Differentiating once with respect to nuclear coordinates.
 Keep R1 ints in memory in canonical form, NReq=1939464977.
          There are    66 degrees of freedom in the 1st order CPHF.  IDoFFX=6 NUNeed=     0.
     60 vectors produced by pass  0 Test12= 1.59D-14 1.52D-09 XBig12= 1.17D-01 1.57D-01.
 AX will form    60 AO Fock derivatives at one time.
     60 vectors produced by pass  1 Test12= 1.59D-14 1.52D-09 XBig12= 1.88D-02 4.06D-02.
     60 vectors produced by pass  2 Test12= 1.59D-14 1.52D-09 XBig12= 2.57D-04 2.33D-03.
     60 vectors produced by pass  3 Test12= 1.59D-14 1.52D-09 XBig12= 1.10D-06 1.23D-04.
     60 vectors produced by pass  4 Test12= 1.59D-14 1.52D-09 XBig12= 2.23D-09 5.22D-06.
     55 vectors produced by pass  5 Test12= 1.59D-14 1.52D-09 XBig12= 3.20D-12 1.72D-07.
     17 vectors produced by pass  6 Test12= 1.59D-14 1.52D-09 XBig12= 4.08D-15 7.14D-09.
 InvSVY:  IOpt=1 It=  1 EMax= 7.22D-16
 Solved reduced A of dimension   372 with    66 vectors.
 End of Minotr F.D. properties file   721 does not exist.
 End of Minotr F.D. properties file   722 does not exist.
 End of Minotr F.D. properties file   788 does not exist.

 **********************************************************************

            Population analysis using the SCF Density.

 **********************************************************************

 Orbital symmetries:
       Occupied  (A) (A) (A) (A) (A) (A) (A) (A) (A) (A) (A) (A)
                 (A) (A) (A) (A) (A) (A) (A) (A) (A) (A) (A) (A)
                 (A) (A) (A) (A) (A) (A) (A) (A) (A)
       Virtual   (A) (A) (A) (A) (A) (A) (A) (A) (A) (A) (A) (A)
                 (A) (A) (A) (A) (A) (A) (A) (A) (A) (A) (A) (A)
                 (A) (A) (A) (A) (A) (A) (A) (A) (A) (A) (A) (A)
                 (A) (A) (A) (A) (A) (A) (A) (A) (A) (A) (A) (A)
                 (A) (A) (A) (A) (A) (A) (A) (A) (A) (A) (A) (A)
                 (A) (A) (A) (A) (A) (A) (A) (A) (A) (A) (A) (A)
                 (A) (A) (A) (A) (A) (A) (A) (A) (A) (A) (A) (A)
                 (A) (A) (A) (A) (A) (A) (A) (A) (A) (A) (A) (A)
                 (A) (A) (A) (A) (A) (A) (A) (A) (A) (A) (A) (A)
                 (A) (A) (A) (A) (A) (A) (A) (A) (A) (A) (A) (A)
                 (A) (A) (A) (A) (A) (A) (A) (A) (A) (A) (A) (A)
                 (A) (A) (A) (A) (A) (A) (A) (A) (A) (A) (A) (A)
                 (A) (A) (A) (A) (A) (A) (A) (A) (A) (A) (A) (A)
                 (A) (A) (A) (A) (A) (A) (A) (A) (A) (A) (A) (A)
                 (A) (A) (A) (A) (A) (A) (A) (A) (A) (A) (A) (A)
                 (A) (A) (A) (A) (A) (A) (A) (A) (A) (A) (A) (A)
                 (A) (A) (A) (A) (A) (A) (A) (A) (A) (A) (A) (A)
                 (A) (A) (A) (A) (A) (A) (A) (A) (A) (A) (A) (A)
                 (A) (A) (A) (A) (A) (A) (A) (A) (A) (A) (A) (A)
                 (A) (A) (A) (A) (A) (A) (A) (A) (A) (A) (A) (A)
                 (A) (A) (A) (A) (A) (A) (A) (A) (A) (A) (A) (A)
                 (A) (A) (A) (A) (A) (A) (A) (A) (A) (A) (A) (A)
                 (A) (A) (A) (A) (A) (A) (A) (A) (A) (A) (A) (A)
                 (A) (A) (A) (A) (A) (A) (A) (A) (A) (A) (A) (A)
                 (A) (A) (A) (A) (A) (A) (A) (A) (A) (A) (A) (A)
                 (A) (A) (A) (A) (A) (A) (A) (A) (A) (A) (A) (A)
                 (A) (A) (A) (A) (A) (A)
 The electronic state is 1-A.
 Alpha  occ. eigenvalues --  -10.18805 -10.18736 -10.18714 -10.18494 -10.17478
 Alpha  occ. eigenvalues --  -10.17411 -10.16996 -10.16591 -10.16383  -0.86038
 Alpha  occ. eigenvalues --   -0.83008  -0.69641  -0.69312  -0.64433  -0.64360
 Alpha  occ. eigenvalues --   -0.55314  -0.52297  -0.50831  -0.50584  -0.48683
 Alpha  occ. eigenvalues --   -0.45941  -0.42708  -0.38306  -0.37714  -0.36804
 Alpha  occ. eigenvalues --   -0.36277  -0.34991  -0.33916  -0.32753  -0.30438
 Alpha  occ. eigenvalues --   -0.29434  -0.24875  -0.21776
 Alpha virt. eigenvalues --   -0.02580  -0.00127   0.03893   0.05632   0.05884
 Alpha virt. eigenvalues --    0.06544   0.07459   0.08561   0.09570   0.09880
 Alpha virt. eigenvalues --    0.10582   0.10734   0.12758   0.13571   0.14633
 Alpha virt. eigenvalues --    0.14760   0.16404   0.17707   0.18293   0.18633
 Alpha virt. eigenvalues --    0.19973   0.20504   0.21004   0.22778   0.23225
 Alpha virt. eigenvalues --    0.24435   0.24838   0.26354   0.27955   0.29456
 Alpha virt. eigenvalues --    0.29806   0.30556   0.31468   0.33126   0.34288
 Alpha virt. eigenvalues --    0.35887   0.37057   0.37906   0.38585   0.39107
 Alpha virt. eigenvalues --    0.40297   0.40826   0.41770   0.42211   0.42818
 Alpha virt. eigenvalues --    0.43399   0.43739   0.44641   0.45170   0.45235
 Alpha virt. eigenvalues --    0.45623   0.45980   0.46463   0.46541   0.46709
 Alpha virt. eigenvalues --    0.48104   0.48555   0.50030   0.52069   0.52877
 Alpha virt. eigenvalues --    0.54580   0.55751   0.58018   0.60779   0.61331
 Alpha virt. eigenvalues --    0.63638   0.66246   0.68413   0.70609   0.72064
 Alpha virt. eigenvalues --    0.73466   0.75673   0.78974   0.79701   0.83252
 Alpha virt. eigenvalues --    0.84679   0.85049   0.86535   0.88057   0.90200
 Alpha virt. eigenvalues --    0.91551   0.93120   0.95535   0.95749   0.98707
 Alpha virt. eigenvalues --    1.00285   1.01104   1.01923   1.02698   1.02890
 Alpha virt. eigenvalues --    1.04136   1.05866   1.07133   1.09149   1.09694
 Alpha virt. eigenvalues --    1.11797   1.12954   1.14412   1.14903   1.15759
 Alpha virt. eigenvalues --    1.16580   1.16807   1.18925   1.20611   1.21712
 Alpha virt. eigenvalues --    1.23529   1.24370   1.26158   1.27395   1.29053
 Alpha virt. eigenvalues --    1.29517   1.31604   1.32645   1.36988   1.42500
 Alpha virt. eigenvalues --    1.44981   1.45816   1.47370   1.47547   1.50852
 Alpha virt. eigenvalues --    1.52890   1.55443   1.57328   1.57986   1.59312
 Alpha virt. eigenvalues --    1.60861   1.61942   1.62996   1.63058   1.65278
 Alpha virt. eigenvalues --    1.66382   1.71347   1.72084   1.72613   1.75981
 Alpha virt. eigenvalues --    1.76186   1.77894   1.80323   1.81459   1.84374
 Alpha virt. eigenvalues --    1.85253   1.86569   1.87499   1.88422   1.92217
 Alpha virt. eigenvalues --    1.93620   1.95283   1.98235   1.98938   2.00398
 Alpha virt. eigenvalues --    2.01775   2.03314   2.06098   2.06985   2.09366
 Alpha virt. eigenvalues --    2.11223   2.13395   2.15633   2.20519   2.21155
 Alpha virt. eigenvalues --    2.21689   2.24993   2.27597   2.29434   2.29960
 Alpha virt. eigenvalues --    2.34041   2.37780   2.40418   2.43393   2.43589
 Alpha virt. eigenvalues --    2.45036   2.46568   2.47645   2.50472   2.51015
 Alpha virt. eigenvalues --    2.52197   2.53102   2.53869   2.56656   2.56808
 Alpha virt. eigenvalues --    2.59178   2.59931   2.60489   2.60950   2.62039
 Alpha virt. eigenvalues --    2.63119   2.64441   2.68050   2.68381   2.68902
 Alpha virt. eigenvalues --    2.71277   2.72725   2.74261   2.76601   2.77646
 Alpha virt. eigenvalues --    2.78539   2.78860   2.79722   2.82122   2.82613
 Alpha virt. eigenvalues --    2.84957   2.86600   2.88710   2.89785   2.91602
 Alpha virt. eigenvalues --    2.92848   2.94238   2.94415   2.96392   2.98819
 Alpha virt. eigenvalues --    2.99564   3.00847   3.01106   3.01998   3.04784
 Alpha virt. eigenvalues --    3.07067   3.07720   3.09099   3.10670   3.12796
 Alpha virt. eigenvalues --    3.15272   3.16088   3.17320   3.19641   3.19979
 Alpha virt. eigenvalues --    3.22501   3.25062   3.27917   3.28713   3.29187
 Alpha virt. eigenvalues --    3.29944   3.32043   3.33164   3.35721   3.39798
 Alpha virt. eigenvalues --    3.40405   3.41185   3.42507   3.43948   3.44882
 Alpha virt. eigenvalues --    3.46252   3.46977   3.48455   3.51285   3.52181
 Alpha virt. eigenvalues --    3.53921   3.55205   3.58071   3.58432   3.60892
 Alpha virt. eigenvalues --    3.61473   3.63098   3.66127   3.66411   3.69367
 Alpha virt. eigenvalues --    3.72277   3.74366   3.78567   3.79491   3.81210
 Alpha virt. eigenvalues --    3.83876   3.88361   3.89191   3.91284   3.94102
 Alpha virt. eigenvalues --    3.96168   3.97852   4.01014   4.03807   4.05131
 Alpha virt. eigenvalues --    4.06553   4.09109   4.10501   4.11686   4.13993
 Alpha virt. eigenvalues --    4.14787   4.16934   4.19124   4.21380   4.23212
 Alpha virt. eigenvalues --    4.23685   4.24659   4.29263   4.30139   4.31298
 Alpha virt. eigenvalues --    4.35690   4.36134   4.37745   4.38489   4.40043
 Alpha virt. eigenvalues --    4.41189   4.47557   4.51610   4.54369   4.58921
 Alpha virt. eigenvalues --    4.63155   4.67136   4.75375   4.78582   4.83269
 Alpha virt. eigenvalues --    4.90718   4.91235   4.92731   4.95107   4.98539
 Alpha virt. eigenvalues --    5.06178   5.11100   5.17658   5.27266  22.25916
 Alpha virt. eigenvalues --   22.30257  22.42485  22.47537  22.49549  22.53539
 Alpha virt. eigenvalues --   22.56642  22.62336  22.82098
          Condensed to atoms (all electrons):
               1          2          3          4          5          6
     1  C    4.955806   0.411438  -0.080022  -0.084607   0.351550   0.173749
     2  C    0.411438   5.168150   0.437883  -0.070529  -0.075470   0.004432
     3  C   -0.080022   0.437883   5.153109   0.428492  -0.079581  -0.039558
     4  C   -0.084607  -0.070529   0.428492   4.952888   0.345434  -0.013388
     5  C    0.351550  -0.075470  -0.079581   0.345434   4.939427  -0.019621
     6  C    0.173749   0.004432  -0.039558  -0.013388  -0.019621   5.083549
     7  C    0.006429  -0.019908  -0.003919   0.155947  -0.016587   0.400185
     8  C   -0.001437  -0.001103   0.002009   0.015561  -0.000364  -0.155125
     9  C    0.010225  -0.001129   0.000641   0.000778   0.001729   0.331874
    10  H    0.415782  -0.084364   0.023715   0.009715  -0.054589  -0.018551
    11  H   -0.040968   0.424396  -0.043768   0.007116   0.007294   0.001779
    12  H    0.007904  -0.045628   0.426229  -0.049364   0.009389  -0.000737
    13  H    0.010690   0.021568  -0.076851   0.413726  -0.055027  -0.000060
    14  H   -0.033217   0.000490  -0.001397  -0.029715   0.405891   0.006277
    15  H   -0.034719   0.009364   0.008477  -0.027980   0.397367  -0.001007
    16  H   -0.019168  -0.003428   0.005017   0.005224   0.001604   0.402530
    17  H    0.002828   0.002679  -0.003230  -0.014175   0.001721  -0.044004
    18  H    0.000104   0.000613  -0.000692  -0.008795   0.000154   0.009684
    19  H   -0.000668  -0.000304   0.000232   0.002641   0.000178   0.005750
    20  H   -0.008058  -0.000561   0.000677  -0.000113  -0.000723  -0.032592
    21  H    0.002952   0.000339  -0.000463  -0.000938   0.000180  -0.025134
               7          8          9         10         11         12
     1  C    0.006429  -0.001437   0.010225   0.415782  -0.040968   0.007904
     2  C   -0.019908  -0.001103  -0.001129  -0.084364   0.424396  -0.045628
     3  C   -0.003919   0.002009   0.000641   0.023715  -0.043768   0.426229
     4  C    0.155947   0.015561   0.000778   0.009715   0.007116  -0.049364
     5  C   -0.016587  -0.000364   0.001729  -0.054589   0.007294   0.009389
     6  C    0.400185  -0.155125   0.331874  -0.018551   0.001779  -0.000737
     7  C    5.115514   0.328421  -0.155824  -0.000202  -0.000363   0.001031
     8  C    0.328421   4.947639   0.360689   0.000622   0.000017   0.000011
     9  C   -0.155824   0.360689   4.953180  -0.001713  -0.000074   0.000043
    10  H   -0.000202   0.000622  -0.001713   0.635060  -0.006746  -0.000170
    11  H   -0.000363   0.000017  -0.000074  -0.006746   0.538203  -0.002423
    12  H    0.001031   0.000011   0.000043  -0.000170  -0.002423   0.554028
    13  H   -0.024323  -0.003119   0.000745  -0.000980  -0.000044  -0.007804
    14  H    0.005066   0.000213   0.000147  -0.001792  -0.000019  -0.000277
    15  H   -0.000838  -0.000845  -0.001141  -0.001808  -0.000224  -0.000256
    16  H   -0.051201   0.022792  -0.055825   0.002050   0.000125   0.000104
    17  H    0.401516  -0.056006   0.021577  -0.000189   0.000030   0.000158
    18  H   -0.030424   0.367918  -0.025602  -0.000108   0.000002  -0.000018
    19  H   -0.024317   0.389975  -0.025454   0.000037  -0.000003   0.000010
    20  H    0.009194  -0.027055   0.373197   0.002700  -0.000014   0.000001
    21  H    0.008355  -0.026666   0.388982  -0.000367   0.000012  -0.000005
              13         14         15         16         17         18
     1  C    0.010690  -0.033217  -0.034719  -0.019168   0.002828   0.000104
     2  C    0.021568   0.000490   0.009364  -0.003428   0.002679   0.000613
     3  C   -0.076851  -0.001397   0.008477   0.005017  -0.003230  -0.000692
     4  C    0.413726  -0.029715  -0.027980   0.005224  -0.014175  -0.008795
     5  C   -0.055027   0.405891   0.397367   0.001604   0.001721   0.000154
     6  C   -0.000060   0.006277  -0.001007   0.402530  -0.044004   0.009684
     7  C   -0.024323   0.005066  -0.000838  -0.051201   0.401516  -0.030424
     8  C   -0.003119   0.000213  -0.000845   0.022792  -0.056006   0.367918
     9  C    0.000745   0.000147  -0.001141  -0.055825   0.021577  -0.025602
    10  H   -0.000980  -0.001792  -0.001808   0.002050  -0.000189  -0.000108
    11  H   -0.000044  -0.000019  -0.000224   0.000125   0.000030   0.000002
    12  H   -0.007804  -0.000277  -0.000256   0.000104   0.000158  -0.000018
    13  H    0.633690  -0.001813  -0.001609  -0.000370   0.001978   0.003109
    14  H   -0.001813   0.576347  -0.034136  -0.000044  -0.000010  -0.000428
    15  H   -0.001609  -0.034136   0.592090  -0.000083  -0.000107   0.000925
    16  H   -0.000370  -0.000044  -0.000083   0.630351  -0.010885  -0.001565
    17  H    0.001978  -0.000010  -0.000107  -0.010885   0.620157   0.005723
    18  H    0.003109  -0.000428   0.000925  -0.001565   0.005723   0.637522
    19  H   -0.000414   0.000006   0.000123  -0.000371  -0.010634  -0.032309
    20  H   -0.000132  -0.000486   0.001451   0.005963  -0.001504  -0.009948
    21  H    0.000053   0.000008   0.000162  -0.011811  -0.000499   0.005080
              19         20         21
     1  C   -0.000668  -0.008058   0.002952
     2  C   -0.000304  -0.000561   0.000339
     3  C    0.000232   0.000677  -0.000463
     4  C    0.002641  -0.000113  -0.000938
     5  C    0.000178  -0.000723   0.000180
     6  C    0.005750  -0.032592  -0.025134
     7  C   -0.024317   0.009194   0.008355
     8  C    0.389975  -0.027055  -0.026666
     9  C   -0.025454   0.373197   0.388982
    10  H    0.000037   0.002700  -0.000367
    11  H   -0.000003  -0.000014   0.000012
    12  H    0.000010   0.000001  -0.000005
    13  H   -0.000414  -0.000132   0.000053
    14  H    0.000006  -0.000486   0.000008
    15  H    0.000123   0.001451   0.000162
    16  H   -0.000371   0.005963  -0.011811
    17  H   -0.010634  -0.001504  -0.000499
    18  H   -0.032309  -0.009948   0.005080
    19  H    0.614488   0.004810  -0.012796
    20  H    0.004810   0.632744  -0.031775
    21  H   -0.012796  -0.031775   0.617135
 Mulliken charges:
               1
     1  C   -0.046593
     2  C   -0.178930
     3  C   -0.157000
     4  C   -0.037921
     5  C   -0.159958
     6  C   -0.070033
     7  C   -0.103752
     8  C   -0.164146
     9  C   -0.177046
    10  H    0.081900
    11  H    0.115674
    12  H    0.107774
    13  H    0.086989
    14  H    0.108887
    15  H    0.094794
    16  H    0.078991
    17  H    0.082875
    18  H    0.079057
    19  H    0.089020
    20  H    0.082223
    21  H    0.087197
 Sum of Mulliken charges =  -0.00000
 Mulliken charges with hydrogens summed into heavy atoms:
               1
     1  C    0.035307
     2  C   -0.063256
     3  C   -0.049226
     4  C    0.049067
     5  C    0.043723
     6  C    0.008958
     7  C   -0.020878
     8  C    0.003931
     9  C   -0.007627
 APT charges:
               1
     1  C   -0.658914
     2  C   -0.456307
     3  C   -0.504321
     4  C   -0.634173
     5  C   -0.567188
     6  C   -0.429804
     7  C   -0.412330
     8  C   -0.781982
     9  C   -0.770209
    10  H    0.418568
    11  H    0.621397
    12  H    0.576259
    13  H    0.392785
    14  H    0.501865
    15  H    0.288845
    16  H    0.407442
    17  H    0.429247
    18  H    0.258277
    19  H    0.541703
    20  H    0.253543
    21  H    0.525298
 Sum of APT charges =  -0.00000
 APT charges with hydrogens summed into heavy atoms:
               1
     1  C   -0.240346
     2  C    0.165090
     3  C    0.071938
     4  C   -0.241388
     5  C    0.223522
     6  C   -0.022363
     7  C    0.016917
     8  C    0.017998
     9  C    0.008632
 Electronic spatial extent (au):  <R**2>=           1122.9648
 Charge=             -0.0000 electrons
 Dipole moment (field-independent basis, Debye):
    X=              0.1873    Y=             -0.0076    Z=             -0.0244  Tot=              0.1891
 Quadrupole moment (field-independent basis, Debye-Ang):
   XX=            -54.7075   YY=            -56.0318   ZZ=            -54.4131
   XY=              0.4344   XZ=             -0.4540   YZ=             -0.0848
 Traceless Quadrupole moment (field-independent basis, Debye-Ang):
   XX=              0.3433   YY=             -0.9810   ZZ=              0.6377
   XY=              0.4344   XZ=             -0.4540   YZ=             -0.0848
 Octapole moment (field-independent basis, Debye-Ang**2):
  XXX=              4.6539  YYY=              0.4898  ZZZ=              1.9973  XYY=             -3.3014
  XXY=             -0.7167  XXZ=             -6.9250  XZZ=             -0.2024  YZZ=             -0.3062
  YYZ=             -1.6900  XYZ=             -0.4582
 Hexadecapole moment (field-independent basis, Debye-Ang**3):
 XXXX=           -977.2057 YYYY=           -347.7838 ZZZZ=           -270.4378 XXXY=              4.6224
 XXXZ=              0.8667 YYYX=              0.0063 YYYZ=             -1.0658 ZZZX=             -3.5258
 ZZZY=              0.4224 XXYY=           -212.1570 XXZZ=           -197.3124 YYZZ=            -99.2934
 XXYZ=              0.8463 YYXZ=              2.7347 ZZXY=              1.2031
 N-N= 4.359764995976D+02 E-N=-1.682951566512D+03  KE= 3.477279457491D+02
  Exact polarizability:       0.000       0.000       0.000       0.000       0.000       0.000
 Approx polarizability:     221.790       6.027     174.689      -8.215       0.860     140.812
   1 Symmetry operations used in ECPInt.
 ECPInt:  NShTT=   10878 NPrTT=   32112 LenC2=   10702 LenP2D=   25499.
 LDataN:  DoStor=T MaxTD1= 8 Len=  415
 Calling FoFJK, ICntrl=    100127 FMM=F ISym2X=0 I1Cent= 0 IOpClX= 0 NMat=1 NMatS=1 NMatT=0.
 ***** Axes restored to original set *****
 -------------------------------------------------------------------
 Center     Atomic                   Forces (Hartrees/Bohr)
 Number     Number              X              Y              Z
 -------------------------------------------------------------------
      1        6           0.003695486   -0.034495231    0.003060860
      2        6           0.017070541    0.073111711   -0.000433946
      3        6          -0.005324221   -0.058171635   -0.017401515
      4        6           0.017381213    0.042728486    0.022221114
      5        6           0.028471660   -0.000701206   -0.048122056
      6        6          -0.014099496    0.020958596    0.009468814
      7        6          -0.026248843   -0.042344259    0.014882918
      8        6          -0.006842741    0.003534336    0.012337501
      9        6          -0.005262074   -0.004029070    0.009709877
     10        1           0.012284613   -0.003352079   -0.003310308
     11        1          -0.000143870   -0.001911017   -0.003012108
     12        1          -0.002809602    0.000285767   -0.005078678
     13        1           0.002846749    0.002459088   -0.004455567
     14        1          -0.001406710    0.000001471   -0.002564602
     15        1           0.004517408    0.001767015   -0.001866965
     16        1          -0.013454219   -0.005266478    0.006379234
     17        1          -0.016206435    0.004865666    0.006712413
     18        1           0.002987338    0.001635939    0.002232486
     19        1          -0.000528266    0.002177344   -0.001573454
     20        1           0.002713616   -0.001312860    0.001962649
     21        1           0.000357852   -0.001941584   -0.001148669
 -------------------------------------------------------------------
 Cartesian Forces:  Max     0.073111711 RMS     0.018260319
 FormGI is forming the generalized inverse of G from B-inverse, IUseBI=4.

 GradGradGradGradGradGradGradGradGradGradGradGradGradGradGradGradGradGrad
 Berny optimization.
 Internal  Forces:  Max     0.049244211 RMS     0.008453768
 Search for a saddle point.
 Step number   1 out of a maximum of  126
 All quantities printed in internal units (Hartrees-Bohrs-Radians)
 Swapping is turned off.
 Second derivative matrix not updated -- analytic derivatives used.
 ITU=  0
     Eigenvalues ---   -0.04232  -0.00740   0.00109   0.00693   0.01106
     Eigenvalues ---    0.01214   0.01265   0.01478   0.01753   0.02026
     Eigenvalues ---    0.02273   0.02578   0.02807   0.03240   0.03325
     Eigenvalues ---    0.03478   0.03544   0.03929   0.04006   0.04133
     Eigenvalues ---    0.04324   0.04340   0.04556   0.04710   0.04882
     Eigenvalues ---    0.05408   0.05866   0.06337   0.07135   0.07632
     Eigenvalues ---    0.07819   0.09300   0.10084   0.10497   0.11568
     Eigenvalues ---    0.13607   0.15455   0.18721   0.20770   0.22358
     Eigenvalues ---    0.24392   0.26494   0.27268   0.30250   0.33297
     Eigenvalues ---    0.33566   0.33667   0.33769   0.33812   0.34051
     Eigenvalues ---    0.34172   0.34239   0.34463   0.34784   0.37064
     Eigenvalues ---    0.37721   0.38255
 Eigenvectors required to have negative eigenvalues:
                          R3        R10       R14       R1        R7
   1                    0.67322   0.64286  -0.13254  -0.09806  -0.08849
                          R5        D7        D35       D60       D58
   1                    0.08403   0.07287  -0.06962  -0.05889   0.05673
 RFO step:  Lambda0=3.599260304D-02 Lambda=-5.98498680D-02.
 Linear search not attempted -- option 19 set.
 Maximum step size (   0.300) exceeded in Quadratic search.
    -- Step size scaled by   0.328
 Iteration  1 RMS(Cart)=  0.02831522 RMS(Int)=  0.00275940
 Iteration  2 RMS(Cart)=  0.00404737 RMS(Int)=  0.00055739
 Iteration  3 RMS(Cart)=  0.00000505 RMS(Int)=  0.00055737
 Iteration  4 RMS(Cart)=  0.00000000 RMS(Int)=  0.00055737
 Variable       Old X    -DE/DX   Delta X   Delta X   Delta X     New X
                                 (Linear)    (Quad)   (Total)
    R1        2.73840   0.00357   0.00000  -0.03111  -0.03067   2.70773
    R2        2.90732  -0.01021   0.00000  -0.02141  -0.02000   2.88732
    R3        4.02535  -0.04924   0.00000   0.23532   0.23523   4.26057
    R4        2.05650   0.00194   0.00000  -0.00273  -0.00273   2.05378
    R5        2.71308  -0.03822   0.00000  -0.02242  -0.02248   2.69060
    R6        2.03092   0.00269   0.00000   0.00308   0.00308   2.03399
    R7        2.68776   0.01608   0.00000  -0.00123  -0.00169   2.68606
    R8        2.03095   0.00433   0.00000   0.00309   0.00309   2.03404
    R9        2.92602  -0.01296   0.00000  -0.01660  -0.01644   2.90958
   R10        3.97609  -0.04628   0.00000  -0.02685  -0.02710   3.94899
   R11        2.05650   0.00081   0.00000  -0.00075  -0.00075   2.05575
   R12        2.05880  -0.00045   0.00000   0.00274   0.00274   2.06154
   R13        2.05243   0.00276   0.00000   0.00134   0.00134   2.05377
   R14        2.89808  -0.01241   0.00000  -0.06522  -0.06595   2.83213
   R15        2.91005   0.00060   0.00000  -0.00853  -0.00821   2.90185
   R16        2.05952  -0.00224   0.00000  -0.00282  -0.00282   2.05670
   R17        2.91005   0.00288   0.00000   0.00224   0.00192   2.91197
   R18        2.05952  -0.00253   0.00000  -0.00287  -0.00287   2.05666
   R19        2.90489   0.00064   0.00000   0.00369   0.00337   2.90826
   R20        2.05651   0.00289   0.00000   0.00232   0.00232   2.05883
   R21        2.05645   0.00144   0.00000   0.00113   0.00113   2.05758
   R22        2.05659   0.00250   0.00000   0.00214   0.00214   2.05873
   R23        2.05630   0.00171   0.00000   0.00218   0.00218   2.05849
    A1        1.82307  -0.00565   0.00000   0.01279   0.00979   1.83286
    A2        1.84887  -0.00543   0.00000  -0.04126  -0.04139   1.80749
    A3        1.96442   0.01111   0.00000   0.04371   0.04269   2.00710
    A4        1.77078  -0.00919   0.00000  -0.07137  -0.07119   1.69959
    A5        2.03702   0.00857   0.00000   0.03700   0.03567   2.07270
    A6        1.99727  -0.00244   0.00000   0.00424   0.00491   2.00218
    A7        1.80386   0.01590   0.00000   0.02679   0.02731   1.83117
    A8        2.23711  -0.00861   0.00000  -0.01332  -0.01359   2.22352
    A9        2.23938  -0.00731   0.00000  -0.01344  -0.01367   2.22571
   A10        1.87390  -0.00129   0.00000   0.00494   0.00463   1.87853
   A11        2.23940  -0.00236   0.00000  -0.01020  -0.01003   2.22937
   A12        2.16724   0.00367   0.00000   0.00459   0.00473   2.17197
   A13        1.80057   0.00046   0.00000   0.00698   0.00556   1.80614
   A14        1.89725  -0.00677   0.00000  -0.01316  -0.01246   1.88479
   A15        2.03094   0.00475   0.00000   0.01369   0.01344   2.04438
   A16        1.84896  -0.01475   0.00000  -0.01519  -0.01488   1.83407
   A17        2.01466   0.00841   0.00000   0.01835   0.01878   2.03343
   A18        1.86196   0.00497   0.00000  -0.01448  -0.01484   1.84712
   A19        1.58256   0.01092   0.00000   0.03907   0.03903   1.62158
   A20        1.94962  -0.00694   0.00000  -0.02180  -0.02163   1.92798
   A21        2.01863  -0.00043   0.00000   0.00620   0.00604   2.02467
   A22        1.93471  -0.00894   0.00000  -0.02523  -0.02527   1.90944
   A23        2.05348   0.00042   0.00000  -0.00085  -0.00115   2.05233
   A24        1.90694   0.00441   0.00000   0.00373   0.00364   1.91057
   A25        1.79464   0.00003   0.00000  -0.02881  -0.02934   1.76530
   A26        2.06044  -0.00679   0.00000  -0.02221  -0.02205   2.03838
   A27        1.94412  -0.00393   0.00000  -0.02783  -0.02685   1.91727
   A28        1.57197   0.00474   0.00000   0.01933   0.01903   1.59099
   A29        2.05621   0.00021   0.00000   0.02255   0.02122   2.07743
   A30        2.00224   0.00666   0.00000   0.04105   0.03988   2.04212
   A31        1.66050   0.00840   0.00000   0.04660   0.04671   1.70721
   A32        2.09550  -0.00489   0.00000  -0.02279  -0.02343   2.07207
   A33        2.00314  -0.00868   0.00000  -0.04672  -0.04694   1.95620
   A34        1.57197  -0.00026   0.00000   0.00435   0.00481   1.57678
   A35        2.05621  -0.00121   0.00000   0.00734   0.00768   2.06389
   A36        2.00224   0.00887   0.00000   0.03190   0.03079   2.03303
   A37        1.56963  -0.00053   0.00000  -0.00808  -0.00851   1.56112
   A38        2.00225   0.00160   0.00000   0.00611   0.00630   2.00855
   A39        1.98141  -0.00123   0.00000  -0.00312  -0.00305   1.97836
   A40        2.01666   0.00141   0.00000   0.00513   0.00482   2.02148
   A41        1.98614  -0.00036   0.00000  -0.00008   0.00046   1.98659
   A42        1.89450  -0.00078   0.00000  -0.00068  -0.00078   1.89372
   A43        1.56963  -0.00396   0.00000  -0.01560  -0.01539   1.55424
   A44        2.00218   0.00367   0.00000   0.01149   0.01137   2.01356
   A45        1.98152  -0.00090   0.00000  -0.00133  -0.00132   1.98019
   A46        2.01654   0.00080   0.00000   0.00047   0.00019   2.01673
   A47        1.98627   0.00193   0.00000   0.00731   0.00750   1.99376
   A48        1.89446  -0.00154   0.00000  -0.00305  -0.00303   1.89142
    D1        0.60087  -0.01059   0.00000  -0.05813  -0.05863   0.54224
    D2       -2.61691  -0.01111   0.00000  -0.05795  -0.05829  -2.67519
    D3       -1.26095   0.00356   0.00000   0.03011   0.02950  -1.23144
    D4        1.80447   0.00303   0.00000   0.03030   0.02985   1.83432
    D5        2.82735   0.00330   0.00000   0.02590   0.02619   2.85353
    D6       -0.39043   0.00278   0.00000   0.02609   0.02653  -0.36389
    D7       -0.88752   0.01720   0.00000   0.07077   0.07145  -0.81607
    D8        1.08152   0.01096   0.00000   0.05638   0.05654   1.13806
    D9       -3.00590   0.01063   0.00000   0.04758   0.04768  -2.95822
   D10        1.03178   0.00640   0.00000   0.00542   0.00627   1.03805
   D11        3.00082   0.00016   0.00000  -0.00897  -0.00864   2.99218
   D12       -1.08660  -0.00017   0.00000  -0.01777  -0.01750  -1.10410
   D13       -3.06861   0.00150   0.00000  -0.02099  -0.02096  -3.08957
   D14       -1.09957  -0.00474   0.00000  -0.03539  -0.03587  -1.13544
   D15        1.09620  -0.00507   0.00000  -0.04418  -0.04473   1.05146
   D16        1.25423  -0.00947   0.00000  -0.02656  -0.02548   1.22876
   D17        2.94802  -0.00591   0.00000  -0.02676  -0.02563   2.92239
   D18       -0.96393  -0.00746   0.00000  -0.01882  -0.01778  -0.98171
   D19       -0.64516   0.00175   0.00000  -0.00113  -0.00154  -0.64670
   D20        1.04863   0.00532   0.00000  -0.00134  -0.00169   1.04694
   D21       -2.86332   0.00376   0.00000   0.00661   0.00616  -2.85717
   D22       -2.85432  -0.00091   0.00000   0.00136   0.00124  -2.85308
   D23       -1.16053   0.00265   0.00000   0.00116   0.00109  -1.15945
   D24        1.21070   0.00110   0.00000   0.00910   0.00893   1.21964
   D25        0.00016  -0.00197   0.00000   0.01346   0.01321   0.01337
   D26        3.06527  -0.00145   0.00000   0.00430   0.00450   3.06978
   D27       -3.06511  -0.00137   0.00000   0.01326   0.01285  -3.05226
   D28       -0.00000  -0.00084   0.00000   0.00410   0.00415   0.00415
   D29       -0.59302   0.01198   0.00000   0.03713   0.03763  -0.55539
   D30        1.36424  -0.00705   0.00000   0.01812   0.01863   1.38286
   D31       -2.81754  -0.00255   0.00000  -0.00165  -0.00133  -2.81887
   D32        2.62110   0.01181   0.00000   0.04663   0.04678   2.66788
   D33       -1.70483  -0.00723   0.00000   0.02762   0.02778  -1.67704
   D34        0.39658  -0.00273   0.00000   0.00785   0.00782   0.40440
   D35        0.87353  -0.01432   0.00000  -0.06238  -0.06257   0.81096
   D36       -1.10906  -0.00979   0.00000  -0.05064  -0.05041  -1.15947
   D37        2.96223  -0.00803   0.00000  -0.03155  -0.03139   2.93084
   D38       -1.11896  -0.00133   0.00000  -0.04487  -0.04540  -1.16436
   D39       -3.10154   0.00320   0.00000  -0.03313  -0.03325  -3.13478
   D40        0.96975   0.00496   0.00000  -0.01404  -0.01423   0.95552
   D41        3.10826  -0.00220   0.00000  -0.02689  -0.02719   3.08106
   D42        1.12567   0.00233   0.00000  -0.01515  -0.01503   1.11064
   D43       -1.08622   0.00409   0.00000   0.00394   0.00398  -1.08224
   D44       -1.21656   0.00644   0.00000  -0.00079  -0.00070  -1.21725
   D45       -2.84080   0.00242   0.00000  -0.03033  -0.02944  -2.87024
   D46        0.94554   0.00656   0.00000   0.01703   0.01609   0.96163
   D47        0.70835  -0.00283   0.00000  -0.00557  -0.00636   0.70199
   D48       -0.91589  -0.00685   0.00000  -0.03511  -0.03510  -0.95100
   D49        2.87044  -0.00271   0.00000   0.01225   0.01043   2.88087
   D50        2.86366   0.00165   0.00000  -0.00015  -0.00023   2.86343
   D51        1.23942  -0.00236   0.00000  -0.02969  -0.02898   1.21045
   D52       -1.25743   0.00177   0.00000   0.01767   0.01656  -1.24087
   D53       -0.02353  -0.00043   0.00000   0.00586   0.00568  -0.01785
   D54        2.07443  -0.00492   0.00000  -0.01410  -0.01412   2.06031
   D55       -2.14479   0.00492   0.00000   0.02779   0.02730  -2.11749
   D56       -2.09796   0.00534   0.00000   0.02742   0.02741  -2.07055
   D57        0.00000   0.00085   0.00000   0.00746   0.00761   0.00761
   D58        2.06396   0.01069   0.00000   0.04936   0.04903   2.11299
   D59        2.12126  -0.00533   0.00000  -0.03845  -0.03875   2.08251
   D60       -2.06396  -0.00982   0.00000  -0.05841  -0.05855  -2.12252
   D61       -0.00000   0.00002   0.00000  -0.01651  -0.01713  -0.01713
   D62       -1.82570  -0.00255   0.00000   0.01788   0.01853  -1.80718
   D63        0.23901  -0.00281   0.00000   0.01309   0.01339   0.25240
   D64        2.43139  -0.00259   0.00000   0.01760   0.01786   2.44926
   D65       -0.00000  -0.00085   0.00000  -0.00747  -0.00762  -0.00762
   D66        2.06471  -0.00111   0.00000  -0.01226  -0.01276   2.05195
   D67       -2.02609  -0.00089   0.00000  -0.00775  -0.00828  -2.03437
   D68        2.11085   0.00378   0.00000   0.03991   0.04072   2.15157
   D69       -2.10762   0.00352   0.00000   0.03512   0.03558  -2.07205
   D70        0.08476   0.00374   0.00000   0.03963   0.04005   0.12482
   D71        1.67517   0.00841   0.00000   0.04757   0.04705   1.72222
   D72       -0.38969   0.00670   0.00000   0.04450   0.04453  -0.34516
   D73       -2.58210   0.00749   0.00000   0.04291   0.04285  -2.53924
   D74       -0.00000  -0.00085   0.00000  -0.00747  -0.00759  -0.00759
   D75       -2.06486  -0.00257   0.00000  -0.01055  -0.01011  -2.07497
   D76        2.02592  -0.00178   0.00000  -0.01214  -0.01179   2.01413
   D77       -2.11085  -0.00180   0.00000  -0.02699  -0.02831  -2.13916
   D78        2.10747  -0.00351   0.00000  -0.03007  -0.03082   2.07665
   D79       -0.08493  -0.00272   0.00000  -0.03166  -0.03250  -0.11744
   D80        0.00000   0.00085   0.00000   0.00744   0.00741   0.00741
   D81       -2.05201  -0.00138   0.00000   0.00268   0.00270  -2.04931
   D82        2.02181  -0.00167   0.00000  -0.00013  -0.00008   2.02174
   D83        2.05212   0.00273   0.00000   0.01130   0.01116   2.06328
   D84        0.00011   0.00050   0.00000   0.00654   0.00645   0.00656
   D85       -2.20925   0.00021   0.00000   0.00373   0.00367  -2.20558
   D86       -2.02166   0.00256   0.00000   0.01488   0.01485  -2.00681
   D87        2.20952   0.00032   0.00000   0.01012   0.01014   2.21965
   D88        0.00015   0.00003   0.00000   0.00731   0.00736   0.00751
         Item               Value     Threshold  Converged?
 Maximum Force            0.049244     0.000450     NO 
 RMS     Force            0.008454     0.000300     NO 
 Maximum Displacement     0.113222     0.001800     NO 
 RMS     Displacement     0.029738     0.001200     NO 
 Predicted change in Energy=-7.589441D-03
 GradGradGradGradGradGradGradGradGradGradGradGradGradGradGradGradGradGrad

                          Input orientation:                          
 ---------------------------------------------------------------------
 Center     Atomic      Atomic             Coordinates (Angstroms)
 Number     Number       Type             X           Y           Z
 ---------------------------------------------------------------------
      1          6           0       -0.691050   -1.139785    0.341569
      2          6           0       -1.832148   -0.762973   -0.438828
      3          6           0       -1.805582    0.660370   -0.463426
      4          6           0       -0.664377    1.082449    0.271345
      5          6           0       -0.508732   -0.005873    1.349287
      6          6           0        1.053655   -0.626302   -0.990927
      7          6           0        1.010564    0.871465   -0.960310
      8          6           0        2.410996    0.907857   -0.318449
      9          6           0        2.445218   -0.630572   -0.341639
     10          1           0       -0.700259   -2.164510    0.703527
     11          1           0       -2.513923   -1.415003   -0.957050
     12          1           0       -2.463143    1.322306   -1.000100
     13          1           0       -0.650490    2.113794    0.617121
     14          1           0       -1.357809    0.037075    2.032903
     15          1           0        0.415784   -0.020035    1.920446
     16          1           0        0.952410   -1.138130   -1.946073
     17          1           0        0.894771    1.402891   -1.902994
     18          1           0        2.455183    1.368703    0.667782
     19          1           0        3.164029    1.374111   -0.951763
     20          1           0        2.504094   -1.113998    0.632885
     21          1           0        3.220648   -1.050976   -0.980821
 ---------------------------------------------------------------------
                    Distance matrix (angstroms):
                    1          2          3          4          5
     1  C    0.000000
     2  C    1.432869   0.000000
     3  C    2.265118   1.423803   0.000000
     4  C    2.223503   2.296435   1.421403   0.000000
     5  C    1.527905   2.349891   2.326291   1.539684   0.000000
     6  C    2.254597   2.941319   3.179469   2.732178   2.881422
     7  C    2.938623   3.320292   2.867426   2.089716   2.900383
     8  C    3.775070   4.561846   4.226322   3.136281   3.484402
     9  C    3.249961   4.280518   4.444172   3.602745   3.460535
    10  H    1.086811   2.133180   3.250149   3.275791   2.261284
    11  H    2.254999   1.076343   2.247796   3.341712   3.365357
    12  H    3.316969   2.249793   1.076366   2.215775   3.332176
    13  H    3.265479   3.284377   2.148083   1.087855   2.247031
    14  H    2.165682   2.640933   2.611638   2.162577   1.090920
    15  H    2.229747   3.342354   3.328703   2.258706   1.086808
    16  H    2.816784   3.188463   3.611006   3.530143   3.778405
    17  H    3.744075   3.777676   3.148904   2.694694   3.812056
    18  H    4.037043   4.914249   4.464917   3.157651   3.337469
    19  H    4.780587   5.458206   5.044297   4.029609   4.548446
    20  H    3.208501   4.480490   4.787859   3.872248   3.289118
    21  H    4.130131   5.089936   5.334734   4.605740   4.519947
                    6          7          8          9         10
     6  C    0.000000
     7  C    1.498700   0.000000
     8  C    2.155979   1.540948   0.000000
     9  C    1.535591   2.167280   1.538984   0.000000
    10  H    2.883309   3.861659   4.490409   3.652309   0.000000
    11  H    3.653876   4.201184   5.482546   5.058373   2.570730
    12  H    4.020575   3.503067   4.938992   5.323468   4.262392
    13  H    3.605282   2.605910   3.420859   4.246666   4.279466
    14  H    3.924128   3.907009   4.526699   4.532904   2.654541
    15  H    3.041469   3.073644   3.139188   3.099740   2.706514
    16  H    1.088358   2.239103   2.993776   2.249511   3.287119
    17  H    2.230412   1.088336   2.248284   2.996113   4.697278
    18  H    2.948838   2.232679   1.089488   2.239673   4.737266
    19  H    2.908069   2.211366   1.088824   2.215332   5.494956
    20  H    2.231230   2.951435   2.236425   1.089432   3.372899
    21  H    2.208236   2.929278   2.220652   1.089304   4.410271
                   11         12         13         14         15
    11  H    0.000000
    12  H    2.738119   0.000000
    13  H    4.289849   2.554910   0.000000
    14  H    3.519225   3.474577   2.611034   0.000000
    15  H    4.336946   4.315053   2.718239   1.778072   0.000000
    16  H    3.615285   4.314465   4.440075   4.748734   4.060551
    17  H    4.522668   3.478116   3.040426   4.736122   4.107656
    18  H    5.922931   5.193641   3.194203   4.263297   2.767112
    19  H    6.326003   5.627617   4.190356   5.580583   4.212609
    20  H    5.272475   5.768506   4.513346   4.266066   2.686189
    21  H    5.746162   6.159408   5.249276   5.588260   4.165027
                   16         17         18         19         20
    16  H    0.000000
    17  H    2.542040   0.000000
    18  H    3.921069   3.007482   0.000000
    19  H    3.491599   2.460732   1.767885   0.000000
    20  H    3.009873   3.918588   2.483428   3.022798   0.000000
    21  H    2.466620   3.504507   3.026330   2.425921   1.766767
                   21
    21  H    0.000000
 Stoichiometry    C9H12
 Framework group  C1[X(C9H12)]
 Deg. of freedom    57
 Full point group                 C1      NOp   1
 Largest Abelian subgroup         C1      NOp   1
 Largest concise Abelian subgroup C1      NOp   1
                         Standard orientation:                         
 ---------------------------------------------------------------------
 Center     Atomic      Atomic             Coordinates (Angstroms)
 Number     Number       Type             X           Y           Z
 ---------------------------------------------------------------------
      1          6           0       -1.055625   -1.137218    0.264310
      2          6           0       -2.034897   -0.616614   -0.642945
      3          6           0       -1.905913    0.798233   -0.549201
      4          6           0       -0.863971    1.075136    0.377119
      5          6           0       -0.951159   -0.093740    1.375496
      6          6           0        0.903830   -0.676080   -0.751118
      7          6           0        0.960879    0.814606   -0.607239
      8          6           0        2.245739    0.693430    0.234767
      9          6           0        2.175981   -0.837482    0.093644
     10          1           0       -1.191371   -2.180297    0.537654
     11          1           0       -2.673068   -1.174206   -1.306528
     12          1           0       -2.425968    1.546496   -1.122096
     13          1           0       -0.831417    2.075758    0.802704
     14          1           0       -1.889747   -0.029388    1.927780
     15          1           0       -0.128149   -0.221843    2.073634
     16          1           0        0.914525   -1.111156   -1.748673
     17          1           0        1.027914    1.417210   -1.511036
     18          1           0        2.170495    1.080290    1.250474
     19          1           0        3.117383    1.139711   -0.241267
     20          1           0        2.051308   -1.389943    1.024292
     21          1           0        3.008910   -1.274257   -0.455938
 ---------------------------------------------------------------------
 Rotational constants (GHZ):           3.2040761           1.3321680           1.2479777
 Standard basis: def2TZVP (5D, 7F)
 There are   396 symmetry adapted cartesian basis functions of A   symmetry.
 There are   351 symmetry adapted basis functions of A   symmetry.
   351 basis functions,   555 primitive gaussians,   396 cartesian basis functions
    33 alpha electrons       33 beta electrons
       nuclear repulsion energy       436.0806897065 Hartrees.
 NAtoms=   21 NActive=   21 NUniq=   21 SFac= 1.00D+00 NAtFMM=   60 NAOKFM=F Big=F
 Integral buffers will be    131072 words long.
 Raffenetti 2 integral format.
 Two-electron integral symmetry is turned on.
 One-electron integrals computed using PRISM.
   1 Symmetry operations used in ECPInt.
 ECPInt:  NShTT=   10878 NPrTT=   32112 LenC2=   10708 LenP2D=   25498.
 LDataN:  DoStor=T MaxTD1= 6 Len=  172
 NBasis=   351 RedAO= T EigKep=  3.50D-05  NBF=   351
 NBsUse=   351 1.00D-06 EigRej= -1.00D+00 NBFU=   351
 Initial guess from the checkpoint file:  "/tmp/Gau-2855045.chk"
 B after Tr=     0.000000    0.000000   -0.000000
         Rot=    0.999952   -0.009424   -0.000644    0.002563 Ang=  -1.12 deg.
 ExpMin= 9.52D-02 ExpMax= 1.36D+04 ExpMxC= 4.63D+02 IAcc=3 IRadAn=         5 AccDes= 0.00D+00
 Harris functional with IExCor=  402 and IRadAn=       5 diagonalized for initial guess.
 HarFok:  IExCor=  402 AccDes= 0.00D+00 IRadAn=         5 IDoV= 1 UseB2=F ITyADJ=14
 ICtDFT=  3500011 ScaDFX=  1.000000  1.000000  1.000000  1.000000
 FoFCou: FMM=F IPFlag=           0 FMFlag=      100000 FMFlg1=           0
         NFxFlg=           0 DoJE=T BraDBF=F KetDBF=T FulRan=T
         wScrn=  0.000000 ICntrl=       500 IOpCl=  0 I1Cent=   200000004 NGrid=           0
         NMat0=    1 NMatS0=      1 NMatT0=    0 NMatD0=    1 NMtDS0=    0 NMtDT0=    0
 Petite list used in FoFCou.
 Requested convergence on RMS density matrix=1.00D-08 within 128 cycles.
 Requested convergence on MAX density matrix=1.00D-06.
 Requested convergence on             energy=1.00D-06.
 No special actions if energy rises.
 Integral accuracy reduced to 1.0D-05 until final iterations.
 Initial convergence to 1.0D-05 achieved.  Increase integral accuracy.
 SCF Done:  E(RB3LYP) =  -350.135964711     A.U. after   13 cycles
            NFock= 13  Conv=0.57D-08     -V/T= 2.0066
   1 Symmetry operations used in ECPInt.
 ECPInt:  NShTT=   10878 NPrTT=   32112 LenC2=   10708 LenP2D=   25498.
 LDataN:  DoStor=T MaxTD1= 7 Len=  274
 Calling FoFJK, ICntrl=      2127 FMM=F ISym2X=0 I1Cent= 0 IOpClX= 0 NMat=1 NMatS=1 NMatT=0.
 ***** Axes restored to original set *****
 -------------------------------------------------------------------
 Center     Atomic                   Forces (Hartrees/Bohr)
 Number     Number              X              Y              Z
 -------------------------------------------------------------------
      1        6          -0.001416413   -0.025405487    0.004880622
      2        6           0.015084956    0.055104078   -0.002355813
      3        6          -0.003847982   -0.043894044   -0.012929498
      4        6           0.013870346    0.035858978    0.016567163
      5        6           0.024090730   -0.002044737   -0.040728557
      6        6          -0.008755762    0.016221110    0.005344253
      7        6          -0.021163974   -0.034531855    0.012349305
      8        6          -0.006040616    0.004225871    0.010675454
      9        6          -0.004925151   -0.004131773    0.008484178
     10        1           0.010668352   -0.002476543   -0.002965606
     11        1           0.000246414   -0.001504243   -0.002673894
     12        1          -0.001560086   -0.000059023   -0.004418640
     13        1           0.002574416    0.001639809   -0.003507362
     14        1          -0.000410359    0.000031032   -0.000777551
     15        1           0.003423309    0.001310444   -0.001730268
     16        1          -0.012201367   -0.006055181    0.006410954
     17        1          -0.014001975    0.005107907    0.006712098
     18        1           0.002420885    0.001311943    0.001604108
     19        1          -0.000545577    0.001508260   -0.001326910
     20        1           0.002020298   -0.001260983    0.001295134
     21        1           0.000469558   -0.000955564   -0.000909171
 -------------------------------------------------------------------
 Cartesian Forces:  Max     0.055104078 RMS     0.014477707

 GradGradGradGradGradGradGradGradGradGradGradGradGradGradGradGradGradGrad
 Berny optimization.
 FormGI is forming the generalized inverse of G from B-inverse, IUseBI=4.
 Internal  Forces:  Max     0.039675542 RMS     0.006835276
 Search for a saddle point.
 Step number   2 out of a maximum of  126
 All quantities printed in internal units (Hartrees-Bohrs-Radians)
 Swapping is turned off.
 Update second derivatives using D2CorX and points    1    2
 ITU=  0  0
     Eigenvalues ---   -0.04398  -0.00655   0.00108   0.00693   0.01106
     Eigenvalues ---    0.01213   0.01267   0.01476   0.01752   0.02026
     Eigenvalues ---    0.02272   0.02574   0.02809   0.03233   0.03323
     Eigenvalues ---    0.03474   0.03543   0.03928   0.04004   0.04135
     Eigenvalues ---    0.04321   0.04337   0.04550   0.04710   0.04881
     Eigenvalues ---    0.05405   0.05861   0.06338   0.07132   0.07609
     Eigenvalues ---    0.07789   0.09299   0.10092   0.10536   0.11559
     Eigenvalues ---    0.13598   0.15443   0.18708   0.20768   0.22339
     Eigenvalues ---    0.24388   0.26491   0.27262   0.30274   0.33297
     Eigenvalues ---    0.33566   0.33667   0.33769   0.33812   0.34051
     Eigenvalues ---    0.34171   0.34239   0.34463   0.34784   0.37064
     Eigenvalues ---    0.37721   0.38252
 Eigenvectors required to have negative eigenvalues:
                          R3        R10       R14       R1        R7
   1                   -0.67696  -0.63373   0.13084   0.09746   0.08817
                          R5        D7        D35       D60       D38
   1                   -0.08701  -0.07841   0.07370   0.06242   0.05934
 RFO step:  Lambda0=2.594481832D-02 Lambda=-4.66048826D-02.
 Linear search not attempted -- option 19 set.
 Maximum step size (   0.300) exceeded in Quadratic search.
    -- Step size scaled by   0.352
 Iteration  1 RMS(Cart)=  0.03125697 RMS(Int)=  0.00271890
 Iteration  2 RMS(Cart)=  0.00397648 RMS(Int)=  0.00057686
 Iteration  3 RMS(Cart)=  0.00000501 RMS(Int)=  0.00057684
 Iteration  4 RMS(Cart)=  0.00000000 RMS(Int)=  0.00057684
 Variable       Old X    -DE/DX   Delta X   Delta X   Delta X     New X
                                 (Linear)    (Quad)   (Total)
    R1        2.70773   0.00335   0.00000  -0.02930  -0.02888   2.67885
    R2        2.88732  -0.00716   0.00000  -0.01802  -0.01662   2.87070
    R3        4.26057  -0.03968   0.00000   0.23431   0.23415   4.49472
    R4        2.05378   0.00126   0.00000  -0.00312  -0.00312   2.05066
    R5        2.69060  -0.02806   0.00000  -0.01557  -0.01568   2.67492
    R6        2.03399   0.00204   0.00000   0.00267   0.00267   2.03666
    R7        2.68606   0.01198   0.00000  -0.00285  -0.00331   2.68275
    R8        2.03404   0.00312   0.00000   0.00248   0.00248   2.03651
    R9        2.90958  -0.00948   0.00000  -0.01364  -0.01353   2.89605
   R10        3.94899  -0.03914   0.00000  -0.05034  -0.05051   3.89849
   R11        2.05575   0.00047   0.00000  -0.00090  -0.00090   2.05484
   R12        2.06154  -0.00017   0.00000   0.00316   0.00316   2.06470
   R13        2.05377   0.00199   0.00000   0.00095   0.00095   2.05472
[...]
 ,0.33060836,-0.03023342,0.06860113,-0.06410363,0.00338757,0.01346031,0
 .00099127,-0.00374442,0.00350991,0.00174522,-0.00347048,-0.00151627,-0
 .00455318,0.00593295,-0.01725884,0.00866541,0.00179578,0.00626901,-0.0
 0249074,0.00135132,-0.00205414,-0.00160401,-0.00026811,-0.00013032,0.0
 0008690,-0.00040553,-0.00016094,0.00009477,0.02484167,-0.07166679,0.05
 893042,-0.00452571,-0.01542680,-0.01097451,-0.13074993,-0.08652901,-0.
 10093448,0.00402808,0.00201226,0.00259208,0.00351101,0.00135801,-0.002
 93971,-0.00005450,0.00173604,-0.00371165,0.00025973,-0.00041027,-0.000
 31352,0.00008559,0.00074388,0.00047203,0.00036594,0.00014944,-0.000044
 71,-0.00002846,0.00019675,-0.00000056,-0.00132327,0.00048877,0.0018263
 8,0.12975797,0.00504507,0.01076327,0.00813828,-0.08700078,-0.15714038,
 -0.10135376,-0.01736537,-0.00707637,-0.01801561,0.00032139,-0.00595156
 ,-0.00048626,0.00280082,-0.00082666,0.00129860,0.00029277,0.00048472,-
 0.00055821,0.00058273,-0.00041139,-0.00019805,0.00005450,-0.00000276,0
 .00003111,-0.00008598,0.00003202,0.00019227,-0.00096335,0.00019273,-0.
 00041444,0.09729182,0.15859917,-0.00476385,-0.01199575,-0.00602296,-0.
 10496226,-0.10317947,-0.14702999,0.00202435,0.00338247,0.00339008,-0.0
 0276806,0.00097811,0.00226030,-0.00625153,0.00049272,0.00168687,-0.000
 23323,0.00003901,0.00028981,-0.00014423,-0.00027679,0.00005138,-0.0002
 2709,-0.00009850,-0.00013459,-0.00007460,0.00002458,-0.00002477,0.0022
 1178,0.00039801,-0.00109337,0.11372924,0.11115295,0.14727700,0.0035728
 4,-0.00077150,-0.00297154,0.00310007,-0.00143868,0.00152491,-0.1410086
 3,0.08864011,-0.10573462,-0.00508426,0.01461702,-0.01032829,0.00020329
 ,-0.00163763,-0.00364641,0.00016168,-0.00071434,0.00045145,0.00025397,
 0.00039958,-0.00034135,-0.00002203,-0.00019998,0.00000854,0.00037640,-
 0.00012687,-0.00004431,0.00008329,0.00011743,-0.00021382,-0.00138863,0
 .00036360,0.00145467,0.14125789,0.00026351,-0.00600764,0.00022637,0.01
 794072,-0.00630321,0.01802691,0.08915130,-0.14899910,0.09524885,-0.005
 91397,0.01128194,-0.00857786,-0.00267500,-0.00106237,-0.00154088,-0.00
 054786,-0.00049203,0.00021972,-0.00030358,0.00048582,0.00054103,0.0000
 8352,0.00002769,-0.00019140,-0.00002990,-0.00001394,-0.00003233,0.0012
 8175,-0.00011917,0.00078546,-0.00050597,0.00078987,-0.00061794,-0.0996
 1382,0.14940065,-0.00270296,-0.00122475,0.00225274,0.00240725,-0.00335
 884,0.00354414,-0.10985663,0.09683416,-0.14491070,-0.00551677,0.011876
 32,-0.00598407,-0.00624059,-0.00088435,0.00166444,-0.00016653,0.000261
 48,0.00005704,-0.00023429,-0.00004996,0.00029544,-0.00007205,-0.000028
 18,-0.00002715,-0.00023292,0.00008649,-0.00013399,0.00012666,-0.000239
 83,0.00070167,0.00141123,0.00072340,-0.00126478,0.11896217,-0.10428126
 ,0.14497558,0.00105625,0.00411199,-0.00049941,-0.00263355,0.00111382,-
 0.00653296,0.00125113,-0.02573347,-0.00420561,-0.03925873,-0.02721614,
 -0.02045937,-0.00058540,0.00573807,0.00572246,-0.00102564,-0.00168571,
 0.00144332,-0.00199610,0.00664059,0.00244579,0.00068718,0.00013322,0.0
 0045957,0.00047120,-0.00001430,-0.00030436,0.00177514,0.00073475,-0.00
 056759,0.00016358,-0.00126681,0.00009952,-0.00134448,0.00085011,0.0022
 4083,0.04050066,0.00119567,-0.00252062,0.00233100,-0.00046964,0.000075
 77,-0.00148767,0.00255776,-0.00296191,0.00090130,-0.03652211,-0.319323
 43,-0.06884878,-0.00299695,-0.00975742,-0.00929733,-0.00063891,-0.0004
 1213,0.00034559,-0.00058042,0.00071433,0.00062814,0.00050513,0.0000658
 0,-0.00015757,-0.00005538,0.00004204,0.00010745,-0.00058902,-0.0006168
 5,-0.00062149,-0.00009916,-0.00019403,0.00023739,-0.00059809,0.0002125
 0,-0.00025400,0.03753466,0.33441999,-0.00354314,0.00133197,-0.00451379
 ,-0.00353651,-0.00374117,0.00169434,0.00419486,-0.01327326,0.00086055,
 -0.02657641,-0.07297139,-0.06558009,0.00488732,0.01737891,0.00874983,0
 .00122284,0.00214203,-0.00157836,0.00214881,-0.00611942,-0.00254878,-0
 .00040837,0.00013687,0.00009439,-0.00027597,0.00011405,0.00008949,-0.0
 0060871,0.00056343,0.00163583,-0.00016859,-0.00080548,0.00069563,0.001
 79282,0.00053373,-0.00109181,0.02102463,0.07592649,0.06050952,0.001574
 39,0.00111929,-0.00204831,-0.00047283,0.00268789,-0.00274922,-0.000350
 97,-0.00258787,-0.00281376,0.00232733,-0.00084151,-0.00340385,-0.13322
 203,-0.00353440,0.11525074,-0.00042468,0.00012481,0.00040564,-0.000399
 13,-0.00007812,0.00027772,0.00044358,0.00037365,0.00049208,0.00048910,
 -0.00034540,0.00048263,0.00035443,0.00028286,0.00041119,-0.00043311,-0
 .00002881,0.00049858,-0.00047182,0.00000065,0.00053922,0.00035664,-0.0
 0026140,0.00046249,0.14866144,0.01203754,-0.00180664,-0.02312761,-0.00
 051751,-0.00155470,-0.00071531,0.00057998,-0.00169488,0.00053122,-0.01
 186647,-0.00281020,0.02310046,-0.00355655,-0.03276147,0.00419720,0.000
 36018,-0.00126341,-0.00216557,-0.00032146,-0.00128140,0.00219762,0.000
 44463,-0.00008610,-0.00008288,-0.00040791,-0.00013264,0.00010799,-0.00
 022245,-0.00009481,0.00094321,-0.00066006,-0.00008696,0.00070915,0.000
 64411,-0.00004138,-0.00068425,0.00025155,-0.00009059,-0.00092245,0.003
 76987,0.04285004,0.00750828,-0.00027611,-0.01497888,0.00084935,-0.0011
 9365,0.00053464,0.00078454,0.00121825,0.00055394,0.00734967,0.00084234
 ,-0.01473067,0.11952192,0.00432045,-0.19302516,0.00088047,0.00279731,-
 0.00234324,0.00103733,-0.00273017,-0.00234931,-0.00028730,0.00001042,0
 .00020149,-0.00029069,-0.00003054,0.00020239,-0.00029494,-0.00038591,0
 .00033489,-0.00063210,-0.00009207,0.00043170,-0.00062933,0.00005011,0.
 00042512,-0.00031444,0.00036361,0.00032945,-0.13052159,-0.00470743,0.2
 1552638,-0.00231361,0.00020811,0.00017803,-0.00044454,0.00033491,-0.00
 035292,-0.00047735,-0.00010858,-0.00057451,-0.00367286,-0.00064168,-0.
 00018720,-0.28436456,-0.00635989,-0.09003781,-0.00094762,0.00029480,0.
 00030363,-0.00097571,-0.00032849,0.00028137,-0.00039055,0.00000931,0.0
 0214145,-0.00037914,-0.00010514,0.00223189,0.00007734,-0.00037821,-0.0
 0035562,0.00023357,0.00011605,-0.00020415,0.00022402,-0.00014116,-0.00
 027814,0.00009950,0.00037532,-0.00033084,-0.01918115,-0.00053657,-0.00
 558092,0.31257146,-0.02391329,0.00379468,-0.00613680,-0.00066672,-0.00
 423727,-0.00379914,0.00090414,-0.00428268,0.00373188,0.02362558,0.0051
 1596,0.00626467,-0.00638646,-0.04969036,-0.00249736,-0.00079725,-0.000
 44498,-0.00031826,0.00077738,-0.00042425,0.00033747,0.00009730,0.00085
 920,0.00165629,-0.00017536,0.00086939,-0.00151234,0.00075365,0.0002120
 6,0.00034824,-0.00030467,0.00070427,-0.00124564,0.00028247,0.00070413,
 0.00124735,-0.00076700,0.00019136,-0.00036609,-0.00068570,0.00024785,-
 0.00020604,0.00721809,0.04809270,-0.01421135,0.00212213,-0.00774658,-0
 .00136892,-0.00368128,-0.00052546,-0.00157157,0.00355566,-0.00044715,-
 0.01381539,-0.00280967,-0.00770682,-0.08481670,-0.00234567,-0.07283835
 ,-0.00100463,-0.00033071,-0.00066083,-0.00101394,0.00027454,-0.0006545
 1,0.00050240,0.00045035,-0.00069323,0.00052562,-0.00040401,-0.00071440
 ,0.00065284,-0.00014976,0.00001982,-0.00053010,0.00032106,-0.00078693,
 -0.00050787,-0.00033559,-0.00077727,0.00063479,0.00018933,0.00001781,0
 .02273462,0.00061800,0.00855139,0.09193559,0.00248567,0.08403359,-0.01
 035212,0.00260198,0.00809105,0.00207257,-0.00335643,0.00470012,0.00185
 063,0.00297478,0.00077290,-0.00503325,0.00117736,0.00216549,-0.0001189
 3,-0.00009664,-0.00073322,-0.06659618,-0.04452743,-0.07880311,0.005409
 21,-0.00590226,0.00051385,-0.00042991,-0.00111536,-0.00482694,-0.00028
 591,-0.01295564,-0.01120127,0.00073795,-0.00013151,-0.00052941,-0.0001
 1471,-0.00005202,-0.00022484,0.00000637,0.00012107,-0.00000748,-0.0000
 8520,0.00009077,-0.00004711,-0.00007199,0.00046991,0.00006401,0.000036
 99,0.00016577,0.00021190,0.07375001,-0.00318965,0.00166322,0.00279233,
 0.00165989,-0.00085311,0.00117501,0.00042778,0.00095651,0.00037445,-0.
 00210417,-0.00102534,0.00061310,-0.00022167,-0.00005801,0.00018201,-0.
 04836941,-0.17257221,-0.13312799,-0.00870926,-0.00673548,-0.01984342,-
 0.00035511,-0.00338950,-0.00266375,-0.00065288,0.00333161,0.00634046,0
 .00030452,0.00009086,-0.00014129,0.00013004,0.00015262,-0.00012233,0.0
 0005676,-0.00000995,-0.00001759,0.00035718,0.00004985,-0.00031748,0.00
 001499,0.00027305,0.00000038,0.00004241,0.00001086,0.00003168,0.062561
 98,0.17685666,0.00793936,-0.00162248,-0.00635250,-0.00346436,0.0040543
 8,-0.00091058,-0.00186505,-0.00381326,-0.00103516,0.00483071,0.0005428
 9,-0.00106470,-0.00048434,0.00019854,0.00040541,-0.08420190,-0.1443889
 2,-0.18229455,-0.00363046,0.00975839,0.00678785,-0.00285115,-0.0020308
 3,0.00432840,0.00585074,-0.00501149,-0.00392353,-0.00024488,0.00035724
 ,-0.00002254,0.00035521,0.00009220,-0.00004413,-0.00007653,-0.00002025
 ,0.00004690,-0.00015381,-0.00005029,0.00023152,0.00012178,-0.00039361,
 -0.00008121,-0.00002246,-0.00005799,0.00006130,0.07780120,0.14416084,0
 .18553662,-0.00507263,-0.00143682,0.00218425,0.00204494,-0.00291937,0.
 00076244,0.00196532,0.00346935,0.00479450,-0.01033994,-0.00338862,0.00
 820331,-0.00013727,0.00009920,-0.00072061,0.00452321,0.00656068,-0.000
 56890,-0.07240379,0.05131573,-0.08590639,-0.00105975,0.01281320,-0.010
 67445,-0.00052652,0.00133525,-0.00495796,-0.00005859,-0.00009629,-0.00
 006654,0.00001675,-0.00011939,-0.00000988,-0.00010938,0.00003928,-0.00
 023094,0.00074531,0.00017558,-0.00053495,-0.00004265,-0.00048853,0.000
 05864,0.00004906,-0.00016581,0.00021169,-0.00090911,-0.00040248,0.0016
 6532,0.08140454,0.00181719,-0.00097724,-0.00048599,-0.00034240,0.00072
 645,-0.00031018,-0.00146190,-0.00069099,-0.00089720,0.00240735,0.00165
 835,-0.00223281,0.00022184,-0.00003477,-0.00022895,0.00940365,-0.00595
 899,0.01970630,0.05521050,-0.16964376,0.12843891,0.00033800,0.00412260
 ,-0.00689535,0.00055450,-0.00333937,0.00229802,-0.00036172,0.00001955,
 0.00031210,-0.00005441,-0.00002056,0.00001645,-0.00014892,0.00014665,0
 .00011111,-0.00026391,0.00008550,0.00011150,-0.00003440,0.00023935,0.0
 0000678,-0.00003997,-0.00000150,-0.00001996,0.00026416,0.00116980,-0.0
 0106664,-0.06906681,0.17220145,0.00487575,-0.00025959,-0.00107500,-0.0
 0208804,0.00371815,-0.00099973,-0.00323891,-0.00424756,-0.00096507,0.0
 0785793,0.00216768,-0.00635679,-0.00046967,-0.00023091,0.00040113,-0.0
 0295918,-0.01008974,0.00689335,-0.09190859,0.13937664,-0.17941432,0.00
 555702,0.00542092,-0.00393628,-0.00295623,0.00177930,0.00437509,-0.000
 16036,0.00003893,0.00023539,-0.00007832,0.00001504,0.00004739,0.000358
 38,-0.00006934,-0.00004389,-0.00022634,-0.00036997,-0.00002512,0.00009
 830,0.00040343,-0.00007689,-0.00002626,0.00005601,0.00006163,0.0016033
 5,0.00118527,-0.00107592,0.08535323,-0.13951958,0.18253469,0.00052575,
 -0.00014232,-0.00006648,-0.00016054,0.00069239,-0.00032162,-0.00031982
 ,-0.00041147,-0.00008567,0.00149769,-0.00023890,-0.00086319,-0.0010980
 3,-0.00012270,-0.00030500,-0.00221992,-0.00172301,-0.00136558,0.001390
 53,-0.01000814,-0.02185472,-0.04577526,0.00633765,0.01034067,-0.002309
 02,0.00033405,0.00434846,0.00000159,0.00006993,0.00009185,0.00009996,0
 .00003096,-0.00006091,0.00001986,-0.00002477,0.00003438,-0.00020672,0.
 00030860,0.00012196,0.00040939,0.00001650,0.00018850,0.00000196,-0.000
 61527,0.00064523,-0.00058843,-0.00130814,0.00046420,-0.00119595,-0.000
 85422,-0.00114652,0.04937997,0.00064812,-0.00028007,-0.00048184,-0.000
 35920,0.00071092,0.00030784,-0.00052438,-0.00073502,-0.00027702,0.0008
 4279,0.00100079,-0.00017901,-0.00077564,0.00022823,-0.00029201,-0.0011
 1965,-0.00214779,-0.00161798,-0.00397983,-0.00027231,0.00208327,0.0083
 3243,-0.09649153,-0.09808473,0.00308308,-0.00701064,-0.02510932,0.0000
 2258,0.00002780,0.00003604,0.00002707,0.00000114,0.00006195,0.00005557
 ,0.00001723,0.00002431,-0.00029672,-0.00012323,0.00021909,0.00024799,0
 .00006673,0.00009428,-0.00034572,-0.00062062,0.00060603,-0.00157858,-0
 .00039727,0.00034749,0.00072123,0.00010033,0.00016609,-0.00358486,0.10
 052075,0.00118468,-0.00006463,-0.00073653,-0.00019151,0.00052023,0.000
 28430,-0.00019979,-0.00026533,-0.00029619,0.00226147,0.00071785,-0.001
 03781,-0.00012253,0.00027391,0.00140718,-0.00205811,-0.00054658,-0.000
 84392,-0.00167820,-0.00467537,-0.01011609,0.01299170,-0.09918779,-0.25
 180981,-0.00010538,0.00207418,0.00460167,-0.00003546,0.00005458,0.0000
 5256,-0.00010156,-0.00001320,0.00017041,0.00001242,-0.00001239,0.00000
 262,-0.00067628,0.00006758,0.00034363,-0.00023465,-0.00016569,0.000163
 68,0.00027645,-0.00031661,0.00006856,-0.00022760,-0.00054992,0.0005602
 8,-0.00067149,-0.00095017,-0.00099837,-0.01179227,0.11050267,0.2733333
 0,-0.00120589,0.00014607,0.00001207,-0.00077806,-0.00065407,0.00050308
 ,-0.00002653,-0.00039555,0.00021026,-0.00001832,-0.00038423,-0.0011955
 4,0.00024858,0.00003232,-0.00044611,-0.00181739,0.00089358,-0.00187253
 ,-0.01902012,-0.01232624,0.01376033,-0.18535409,-0.07835103,0.10634056
 ,0.00450683,0.00338546,-0.00470442,0.00006285,-0.00006185,-0.00000402,
 0.00012158,0.00000490,-0.00010101,-0.00005179,0.00004450,-0.00002784,-
 0.00004251,0.00007950,0.00008873,0.00001559,0.00001884,0.00005773,-0.0
 0004854,0.00004832,0.00005082,0.00069206,-0.00033074,-0.00060883,0.001
 21433,0.00076256,-0.00027842,-0.00056722,-0.00043019,0.00176593,0.2009
 2571,-0.00044642,-0.00013064,0.00014994,0.00077489,0.00001306,0.000010
 25,0.00000300,0.00024488,-0.00004805,0.00064622,0.00012089,-0.00014093
 ,0.00011041,0.00004681,0.00017288,0.00137767,-0.00194754,-0.00077552,0
 .00015032,0.00088495,-0.00285188,-0.07728547,-0.08647402,0.05650953,-0
 .02114976,-0.01200141,0.01626439,0.00009203,0.00009387,-0.00006054,-0.
 00005129,-0.00001683,0.00006394,0.00003436,-0.00000341,-0.00000379,-0.
 00010428,0.00002846,0.00002843,-0.00002787,-0.00001203,-0.00000340,0.0
 0005410,-0.00026574,-0.00002240,-0.00041746,0.00015634,-0.00103922,-0.
 00044679,0.00024362,-0.00022562,0.01046550,0.00660950,-0.00757673,0.08
 661467,0.09405503,-0.00040669,0.00001438,-0.00003668,-0.00027424,-0.00
 053720,0.00045046,0.00034315,0.00014473,0.00020574,-0.00058467,0.00019
 818,-0.00057588,-0.00042139,-0.00000534,-0.00020337,-0.00088837,-0.000
 08960,-0.00056217,-0.01136939,-0.00838459,0.00940087,0.10372162,0.0568
 9008,-0.12240988,-0.00014628,-0.00050979,-0.00201174,0.00004214,0.0000
 0779,-0.00001029,0.00002306,-0.00001004,0.00007488,0.00000806,0.000031
 24,0.00002387,-0.00013979,0.00005035,0.00004400,0.00012156,-0.00000751
 ,0.00008287,0.00017979,-0.00030846,0.00033420,0.00048685,-0.00034306,-
 0.00091985,0.00088015,0.00069626,0.00076134,0.02159792,0.01167295,-0.0
 1584890,-0.11308717,-0.05992457,0.12984855,0.00153087,0.00027979,-0.00
 087086,-0.00037573,0.00043315,-0.00009669,-0.00013822,-0.00073859,-0.0
 0031102,0.00055260,0.00019164,-0.00009255,-0.00114538,0.00004628,-0.00
 032012,0.00056737,0.01029085,-0.02159131,-0.00238551,0.00172489,-0.001
 43836,-0.00212697,-0.00008194,0.00288669,-0.04509307,-0.00337114,0.004
 53968,-0.00020588,-0.00031516,0.00013102,0.00002161,0.00002467,0.00003
 600,0.00010296,-0.00002441,-0.00005751,0.00000710,-0.00007215,0.000093
 03,0.00042346,0.00000228,0.00019360,-0.00005505,0.00064063,0.00068580,
 -0.00119985,0.00079033,-0.00112627,-0.00075482,0.00128237,0.00049753,0
 .00082492,0.00045028,-0.00007041,0.00026941,-0.00109532,0.00008746,0.0
 4913476,-0.00083707,0.00097231,0.00015031,0.00054776,-0.00068504,0.000
 26759,0.00031146,0.00069801,-0.00032154,-0.00061248,-0.00031330,0.0004
 8190,0.00069705,0.00027601,0.00026135,0.00404886,0.00052884,-0.0032332
 5,0.00112900,-0.00200411,0.00152365,-0.00279163,-0.00743797,0.02519025
 ,-0.00539395,-0.09931435,0.10015436,0.00029921,-0.00012058,-0.00021685
 ,-0.00005543,0.00001555,-0.00002215,-0.00002007,-0.00000125,-0.0000672
 2,-0.00002340,0.00002332,-0.00003103,-0.00022467,0.00005181,-0.0000843
 3,0.00037527,-0.00056054,-0.00057429,-0.00078877,0.00009605,-0.0002202
 5,0.00156037,-0.00023316,-0.00032898,-0.00051100,0.00188796,-0.0007384
 3,0.00163485,-0.00307213,0.00079963,0.00062380,0.10316142,0.00229005,-
 0.00056354,-0.00104251,-0.00020903,0.00024896,-0.00029093,-0.00015746,
 -0.00052605,0.00027512,0.00117239,0.00013770,-0.00073016,-0.00009834,-
 0.00029239,0.00140726,-0.00190566,0.00468174,-0.01009455,-0.00207447,0
 .00041394,-0.00082174,-0.00001340,-0.00220613,0.00484884,0.00710010,0.
 10140886,-0.24967147,-0.00066821,-0.00011193,0.00034049,0.00001108,0.0
 0001324,0.00000250,-0.00010236,0.00000542,0.00016982,-0.00003245,-0.00
 005686,0.00005165,-0.00024637,0.00015048,0.00016443,0.00026142,0.00032
 519,0.00006557,-0.00073415,0.00092057,-0.00099037,-0.00024194,0.000527
 02,0.00056235,-0.00011870,0.00074922,0.00038421,-0.00025990,-0.0009055
 2,0.00031451,-0.00529105,-0.11282412,0.27093735,-0.00000435,0.00038979
 ,-0.00119759,-0.00004770,0.00037564,0.00021128,-0.00076810,0.00060397,
 0.00050978,-0.00122034,-0.00020965,0.00001901,0.00025600,-0.00001550,-
 0.00043580,-0.01965551,0.01098958,0.01369940,-0.00168684,-0.00085857,-
 0.00192338,0.00342137,-0.00244908,-0.00378116,-0.19396820,0.07091033,0
 .11023058,-0.00004353,-0.00008464,0.00008924,-0.00004706,-0.00004677,-
 0.00002850,0.00011838,0.00000402,-0.00009710,0.00006463,0.00006024,-0.
 00000688,0.00001501,-0.00001787,0.00005726,-0.00004324,-0.00003582,0.0
 0004918,0.00122980,-0.00070238,-0.00029850,0.00064695,0.00036654,-0.00
 066465,0.00028928,-0.00143637,-0.00032742,0.00087349,0.00070149,-0.000
 17380,0.00004541,0.00003083,0.00131844,0.21052456,-0.00064768,0.000106
 77,0.00007896,-0.00002358,0.00026714,0.00006089,-0.00081667,-0.0000022
 7,0.00001425,0.00038738,-0.00011457,-0.00014980,-0.00009373,0.00004142
 ,-0.00019583,-0.00121676,0.00140234,0.00355942,-0.00135300,-0.00208609
 ,0.00064921,0.02204244,-0.01074810,-0.01661082,0.06987219,-0.07671432,
 -0.04977711,0.00010165,0.00003066,-0.00002349,-0.00003701,-0.00000786,
 0.00000185,0.00005887,-0.00001303,-0.00007062,-0.00009419,0.00009130,0
 .00006128,0.00002816,-0.00001162,0.00000572,-0.00004296,-0.00027452,0.
 00001889,0.00049434,0.00023344,0.00020328,0.00044103,0.00018670,0.0010
 1382,0.00128922,-0.00309292,0.00085183,-0.00073167,0.00142636,-0.00038
 542,-0.01108225,0.00603114,0.00790419,-0.07857578,0.08324803,-0.000579
 63,-0.00022474,-0.00057653,0.00035105,-0.00012414,0.00020475,-0.000313
 30,0.00051548,0.00045610,-0.00040092,-0.00003883,-0.00003842,-0.000422
 08,-0.00001650,-0.00020536,-0.01184032,0.00762256,0.00952135,-0.000906
 19,0.00002167,-0.00055386,0.00005958,0.00040714,-0.00218326,0.10762628
 ,-0.05031014,-0.12355894,-0.00013558,-0.00005861,0.00004312,0.00000950
 ,-0.00003105,0.00002356,0.00002304,0.00001042,0.00007428,0.00004150,-0
 .00000427,-0.00000969,0.00012119,0.00001356,0.00008301,0.00016120,0.00
 031196,0.00033766,0.00092443,-0.00064927,0.00075676,0.00047053,0.00038
 236,-0.00090497,0.00014748,-0.00082931,0.00031521,-0.00020371,0.000378
 81,0.00103747,0.02211533,-0.01016660,-0.01588236,-0.11724938,0.0527894
 9,0.13106011\\-0.00000851,-0.00000396,0.00000410,-0.00000047,0.0000032
 0,0.00000131,0.00000194,-0.00000447,0.00000426,-0.00000182,0.00000612,
 -0.00001232,0.00000006,-0.00000538,-0.00000416,-0.00001613,0.00000829,
 -0.00000385,0.00001687,0.00001836,0.00000719,-0.00000465,-0.00000738,0
 .00000330,-0.00000280,-0.00000286,0.00000544,0.00000615,0.00000090,-0.
 00000174,0.00000432,0.00000066,-0.00000466,0.00000213,-0.00000034,-0.0
 0000254,-0.00000144,-0.00000208,0.00000234,-0.00000120,0.00000236,-0.0
 0000491,0.00000560,-0.00000091,-0.00000032,0.00000550,-0.00000504,0.00
 000453,-0.00000448,-0.00000846,-0.00000271,0.00000031,-0.00000044,0.00
 000151,0.00000028,0.00000030,0.00000076,-0.00000342,-0.00000274,0.0000
 0090,0.00000177,0.00000389,0.00000156\\\@
 The archive entry for this job was punched.


 EVERYTHING'S GOT A MORAL, IF ONLY YOU CAN FIND IT.

                                    -- LEWIS CARROL, ALICE IN WONDERLAND
 Job cpu time:       0 days  1 hours 21 minutes 44.0 seconds.
 Elapsed time:       0 days  0 hours  5 minutes 10.9 seconds.
 File lengths (MBytes):  RWF=    209 Int=      0 D2E=      0 Chk=     11 Scr=      1
 Normal termination of Gaussian 16 at Tue Sep  6 23:31:40 2022.
