 Entering Link 1 = C:\G09W\l1.exe PID=     19840.
  
 Copyright (c) 1988,1990,1992,1993,1995,1998,2003,2009, Gaussian, Inc.
                  All Rights Reserved.
  
 This is part of the Gaussian(R) 09 program.  It is based on
 the Gaussian(R) 03 system (copyright 2003, Gaussian, Inc.),
 the Gaussian(R) 98 system (copyright 1998, Gaussian, Inc.),
 the Gaussian(R) 94 system (copyright 1995, Gaussian, Inc.),
 the Gaussian 92(TM) system (copyright 1992, Gaussian, Inc.),
 the Gaussian 90(TM) system (copyright 1990, Gaussian, Inc.),
 the Gaussian 88(TM) system (copyright 1988, Gaussian, Inc.),
 the Gaussian 86(TM) system (copyright 1986, Carnegie Mellon
 University), and the Gaussian 82(TM) system (copyright 1983,
 Carnegie Mellon University). Gaussian is a federally registered
 trademark of Gaussian, Inc.
  
 This software contains proprietary and confidential information,
 including trade secrets, belonging to Gaussian, Inc.
  
 This software is provided under written license and may be
 used, copied, transmitted, or stored only in accord with that
 written license.
  
 The following legend is applicable only to US Government
 contracts under FAR:
  
                    RESTRICTED RIGHTS LEGEND
  
 Use, reproduction and disclosure by the US Government is
 subject to restrictions as set forth in subparagraphs (a)
 and (c) of the Commercial Computer Software - Restricted
 Rights clause in FAR 52.227-19.
  
 Gaussian, Inc.
 340 Quinnipiac St., Bldg. 40, Wallingford CT 06492
  
  
 ---------------------------------------------------------------
 Warning -- This program may not be used in any manner that
 competes with the business of Gaussian, Inc. or will provide
 assistance to any competitor of Gaussian, Inc.  The licensee
 of this program is prohibited from giving any competitor of
 Gaussian, Inc. access to this program.  By using this program,
 the user acknowledges that Gaussian, Inc. is engaged in the
 business of creating and licensing software in the field of
 computational chemistry and represents and warrants to the
 licensee that it is not a competitor of Gaussian, Inc. and that
 it will not use this program in any manner prohibited above.
 ---------------------------------------------------------------
  

 Cite this work as:
 Gaussian 09, Revision A.02,
 M. J. Frisch, G. W. Trucks, H. B. Schlegel, G. E. Scuseria, 
 M. A. Robb, J. R. Cheeseman, G. Scalmani, V. Barone, B. Mennucci, 
 G. A. Petersson, H. Nakatsuji, M. Caricato, X. Li, H. P. Hratchian, 
 A. F. Izmaylov, J. Bloino, G. Zheng, J. L. Sonnenberg, M. Hada, 
 M. Ehara, K. Toyota, R. Fukuda, J. Hasegawa, M. Ishida, T. Nakajima, 
 Y. Honda, O. Kitao, H. Nakai, T. Vreven, J. A. Montgomery, Jr., 
 J. E. Peralta, F. Ogliaro, M. Bearpark, J. J. Heyd, E. Brothers, 
 K. N. Kudin, V. N. Staroverov, R. Kobayashi, J. Normand, 
 K. Raghavachari, A. Rendell, J. C. Burant, S. S. Iyengar, J. Tomasi, 
 M. Cossi, N. Rega, J. M. Millam, M. Klene, J. E. Knox, J. B. Cross, 
 V. Bakken, C. Adamo, J. Jaramillo, R. Gomperts, R. E. Stratmann, 
 O. Yazyev, A. J. Austin, R. Cammi, C. Pomelli, J. W. Ochterski, 
 R. L. Martin, K. Morokuma, V. G. Zakrzewski, G. A. Voth, 
 P. Salvador, J. J. Dannenberg, S. Dapprich, A. D. Daniels, 
 O. Farkas, J. B. Foresman, J. V. Ortiz, J. Cioslowski, 
 and D. J. Fox, Gaussian, Inc., Wallingford CT, 2009.
 
 ******************************************
 Gaussian 09:  IA32W-G09RevA.02 11-Jun-2009
                18-May-2020 
 ******************************************
 ---------------
 # b3lyp/lanl2dz
 ---------------
 1/38=1/1;
 2/12=2,17=6,18=5,40=1/2;
 3/5=6,6=3,11=2,16=1,25=1,30=1,74=-5/1,2,3;
 4//1;
 5/5=2,38=5/2;
 6/7=2,8=2,9=2,10=2,28=1/1;
 99/5=1,9=1/99;
 --
 Pd
 --
 Symbolic Z-matrix:
 Charge =  0 Multiplicity = 1
 C                     0.        0.        0. 
 H                     0.63133   0.63133   0.63133 
 H                    -0.63133  -0.63133   0.63133 
 H                    -0.63133   0.63133  -0.63133 
 Pd                    1.18357  -1.18357  -1.18357 
 H                     2.09578  -2.09578  -2.09578 
 
                          Input orientation:                          
 ---------------------------------------------------------------------
 Center     Atomic      Atomic             Coordinates (Angstroms)
 Number     Number       Type             X           Y           Z
 ---------------------------------------------------------------------
      1          6           0        0.000000    0.000000    0.000000
      2          1           0        0.631331    0.631331    0.631331
      3          1           0       -0.631331   -0.631331    0.631331
      4          1           0       -0.631331    0.631331   -0.631331
      5         46           0        1.183568   -1.183568   -1.183568
      6          1           0        2.095781   -2.095781   -2.095781
 ---------------------------------------------------------------------
                    Distance matrix (angstroms):
                    1          2          3          4          5
     1  C    0.000000
     2  H    1.093497   0.000000
     3  H    1.093497   1.785674   0.000000
     4  H    1.093497   1.785674   1.785674   0.000000
     5  Pd   2.050000   2.625392   2.625392   2.625392   0.000000
     6  H    3.630000   4.125397   4.125397   4.125397   1.580000
                    6
     6  H    0.000000
 Stoichiometry    CH4Pd
 Framework group  C3V[C3(CPdH),3SGV(H)]
 Deg. of freedom     4
 Full point group                 C3V     NOp   6
 Largest Abelian subgroup         CS      NOp   2
 Largest concise Abelian subgroup CS      NOp   2
                         Standard orientation:                         
 ---------------------------------------------------------------------
 Center     Atomic      Atomic             Coordinates (Angstroms)
 Number     Number       Type             X           Y           Z
 ---------------------------------------------------------------------
      1          6           0        0.000000    0.000000   -1.729223
      2          1           0        0.000000    1.030959   -2.093722
      3          1           0       -0.892837   -0.515480   -2.093722
      4          1           0        0.892837   -0.515480   -2.093722
      5         46           0        0.000000    0.000000    0.320777
      6          1           0        0.000000    0.000000    1.900777
 ---------------------------------------------------------------------
 Rotational constants (GHZ):    157.2634635      7.8176686      7.8176686
 Standard basis: LANL2DZ (5D, 7F)
 There are    28 symmetry adapted basis functions of A'  symmetry.
 There are    11 symmetry adapted basis functions of A"  symmetry.
 Integral buffers will be    262144 words long.
 Raffenetti 2 integral format.
 Two-electron integral symmetry is turned on.
    39 basis functions,    90 primitive gaussians,    41 cartesian basis functions
    14 alpha electrons       14 beta electrons
       nuclear repulsion energy        55.6507982556 Hartrees.
 NAtoms=    6 NActive=    6 NUniq=    4 SFac= 1.69D+00 NAtFMM=   80 NAOKFM=F Big=F
 One-electron integrals computed using PRISM.
   6 Symmetry operations used in ECPInt.
 ECPInt:  NShTT=     231 NPrTT=    1229 LenC2=     232 LenP2D=    1161.
 LDataN:  DoStor=T MaxTD1= 5 Len=  102
 NBasis=    39 RedAO= T  NBF=    28    11
 NBsUse=    39 1.00D-06 NBFU=    28    11
 Defaulting to unpruned grid for atomic number  46.
 Harris functional with IExCor=  402 diagonalized for initial guess.
 ExpMin= 2.62D-02 ExpMax= 4.23D+03 ExpMxC= 1.46D+02 IAcc=3 IRadAn=         0 AccDes= 0.00D+00
 HarFok:  IExCor=  402 AccDes= 0.00D+00 IRadAn=         0 IDoV= 1
 ScaDFX=  1.000000  1.000000  1.000000  1.000000
 Defaulting to unpruned grid for atomic number  46.
 FoFCou: FMM=F IPFlag=           0 FMFlag=      100000 FMFlg1=           0
         NFxFlg=           0 DoJE=T BraDBF=F KetDBF=T FulRan=T
         Omega=  0.000000  0.000000  1.000000  0.000000  0.000000 ICntrl=     500 IOpCl=  0
         NMat0=    1 NMatS0=    1 NMatT0=    0 NMatD0=    1 NMtDS0=    0 NMtDT0=    0
         I1Cent=           4 NGrid=           0.
 Petite list used in FoFCou.
 Initial guess orbital symmetries:
       Occupied  (A1) (A1) (A1) (E) (E) (A1) (E) (E) (A1) (A1)
                 (A1) (E) (E) (E)
       Virtual   (E) (E) (E) (A1) (A1) (E) (E) (A1) (E) (E) (E)
                 (E) (A1) (A1) (A1) (E) (E) (E) (E) (A1) (A1) (E)
                 (E) (A1) (A1)
 Requested convergence on RMS density matrix=1.00D-08 within 128 cycles.
 Requested convergence on MAX density matrix=1.00D-06.
 Requested convergence on             energy=1.00D-06.
 No special actions if energy rises.
 Keep R1 ints in memory in canonical form, NReq=1311676.
 Density matrix breaks symmetry, PCut= 1.00D-04
 Density has only Abelian symmetry.
 Defaulting to unpruned grid for atomic number  46.
 Density matrix breaks symmetry, PCut= 1.00D-04
 Density has only Abelian symmetry.
 Density matrix breaks symmetry, PCut= 1.00D-04
 Density has only Abelian symmetry.
 EnCoef did   100 forward-backward iterations
 Density matrix breaks symmetry, PCut= 1.00D-04
 Density has only Abelian symmetry.
 Density matrix breaks symmetry, PCut= 1.00D-04
 Density has only Abelian symmetry.
 Density matrix breaks symmetry, PCut= 1.00D-04
 Density has only Abelian symmetry.
 Density matrix breaks symmetry, PCut= 1.00D-04
 Density has only Abelian symmetry.
 Density matrix breaks symmetry, PCut= 1.00D-04
 Density has only Abelian symmetry.
 Density matrix breaks symmetry, PCut= 1.00D-04
 Density has only Abelian symmetry.
 SCF Done:  E(RB3LYP) =  -167.137422849     A.U. after   14 cycles
             Convg  =    0.4690D-08             -V/T =  2.9330

 **********************************************************************

            Population analysis using the SCF density.

 **********************************************************************

 Orbital symmetries:
       Occupied  (A1) (A1) (A1) (E) (E) (A1) (E) (E) (A1) (E) (E)
                 (E) (E) (A1)
       Virtual   (A1) (E) (E) (A1) (A1) (E) (E) (A1) (E) (E) (A1)
                 (E) (E) (A1) (E) (E) (E) (E) (A1) (A1) (A1) (E)
                 (E) (A1) (A1)
 The electronic state is 1-A1.
 Alpha  occ. eigenvalues --  -10.16163  -3.37461  -2.11249  -2.08680  -2.08680
 Alpha  occ. eigenvalues --   -0.67683  -0.40626  -0.40626  -0.38403  -0.29971
 Alpha  occ. eigenvalues --   -0.29971  -0.29585  -0.29585  -0.22453
 Alpha virt. eigenvalues --   -0.17389  -0.00522  -0.00522   0.01760   0.08760
 Alpha virt. eigenvalues --    0.10156   0.10156   0.20527   0.21098   0.21098
 Alpha virt. eigenvalues --    0.30367   0.31801   0.31801   0.32907   0.51200
 Alpha virt. eigenvalues --    0.51200   0.57512   0.57512   0.62980   0.99695
 Alpha virt. eigenvalues --    1.08636   1.12344   1.12344   1.26108   3.23588
          Condensed to atoms (all electrons):
              1          2          3          4          5          6
     1  C    5.660422   0.347082   0.347082   0.347082   0.164129  -0.017818
     2  H    0.347082   0.494696  -0.021368  -0.021368  -0.015026   0.000177
     3  H    0.347082  -0.021368   0.494696  -0.021368  -0.015026   0.000177
     4  H    0.347082  -0.021368  -0.021368   0.494696  -0.015026   0.000177
     5  Pd   0.164129  -0.015026  -0.015026  -0.015026  17.304798   0.334533
     6  H   -0.017818   0.000177   0.000177   0.000177   0.334533   0.723812
 Mulliken atomic charges:
              1
     1  C   -0.847981
     2  H    0.215807
     3  H    0.215807
     4  H    0.215807
     5  Pd   0.241619
     6  H   -0.041059
 Sum of Mulliken atomic charges =   0.00000
 Mulliken charges with hydrogens summed into heavy atoms:
              1
     1  C   -0.200560
     5  Pd   0.200560
 Sum of Mulliken charges with hydrogens summed into heavy atoms =   0.00000
 Electronic spatial extent (au):  <R**2>=            208.4234
 Charge=              0.0000 electrons
 Dipole moment (field-independent basis, Debye):
    X=              0.0000    Y=              0.0000    Z=             -1.6727  Tot=              1.6727
 Quadrupole moment (field-independent basis, Debye-Ang):
   XX=            -26.7692   YY=            -26.7692   ZZ=            -35.8897
   XY=              0.0000   XZ=              0.0000   YZ=              0.0000
 Traceless Quadrupole moment (field-independent basis, Debye-Ang):
   XX=              3.0402   YY=              3.0402   ZZ=             -6.0803
   XY=              0.0000   XZ=              0.0000   YZ=              0.0000
 Octapole moment (field-independent basis, Debye-Ang**2):
  XXX=              0.0000  YYY=              0.6528  ZZZ=              7.7912  XYY=              0.0000
  XXY=             -0.6528  XXZ=              4.0705  XZZ=              0.0000  YZZ=              0.0000
  YYZ=              4.0705  XYZ=              0.0000
 Hexadecapole moment (field-independent basis, Debye-Ang**3):
 XXXX=            -34.3315 YYYY=            -34.3315 ZZZZ=           -279.0956 XXXY=              0.0000
 XXXZ=              0.0000 YYYX=              0.0000 YYYZ=             -1.4472 ZZZX=              0.0000
 ZZZY=              0.0000 XXYY=            -11.4438 XXZZ=            -46.5623 YYZZ=            -46.5623
 XXYZ=              1.4472 YYXZ=              0.0000 ZZXY=              0.0000
 N-N= 5.565079825558D+01 E-N=-4.745649976541D+02  KE= 8.646326144003D+01
 Symmetry A'   KE= 6.742614592510D+01
 Symmetry A"   KE= 1.903711551493D+01
 1|1|UNPC-DESKTOP-NTK9DLK|SP|RB3LYP|LANL2DZ|C1H4Pd1|LEAHW|18-May-2020|0
 ||# b3lyp/lanl2dz||Pd||0,1|C,0,0.,0.,0.|H,0,0.631331,0.631331,0.631331
 |H,0,-0.631331,-0.631331,0.631331|H,0,-0.631331,0.631331,-0.631331|Pd,
 0,1.18356805,-1.18356805,-1.18356805|H,0,2.09578148,-2.09578148,-2.095
 78148||Version=IA32W-G09RevA.02|State=1-A1|HF=-167.1374228|RMSD=4.690e
 -009|Dipole=-0.3799536,0.3799536,0.3799536|Quadrupole=0.,0.,0.,2.26029
 16,2.2602916,-2.2602916|PG=C03V [C3(C1Pd1H1),3SGV(H1)]||@


 IF I HAVE SEEN FARTHER, IT IS BY STANDING ON THE
 SHOULDERS OF GIANTS. -- SIR ISAAC NEWTON
 Job cpu time:  0 days  0 hours  0 minutes  4.0 seconds.
 File lengths (MBytes):  RWF=      5 Int=      0 D2E=      0 Chk=      1 Scr=      1
 Normal termination of Gaussian 09 at Mon May 18 10:42:50 2020.
