 Entering Gaussian System, Link 0=/opt/apps/Gaussian/G16C/g16/g16
 Initial command:
 /opt/apps/Gaussian/G16C/g16/l1.exe "/tmp/Gau-2812905.inp" -scrdir="/tmp/"
 Entering Link 1 = /opt/apps/Gaussian/G16C/g16/l1.exe PID=   2812912.
  
 Copyright (c) 1988-2019, Gaussian, Inc.  All Rights Reserved.
  
 This is part of the Gaussian(R) 16 program.  It is based on
 the Gaussian(R) 09 system (copyright 2009, Gaussian, Inc.),
 the Gaussian(R) 03 system (copyright 2003, Gaussian, Inc.),
 the Gaussian(R) 98 system (copyright 1998, Gaussian, Inc.),
 the Gaussian(R) 94 system (copyright 1995, Gaussian, Inc.),
 the Gaussian 92(TM) system (copyright 1992, Gaussian, Inc.),
 the Gaussian 90(TM) system (copyright 1990, Gaussian, Inc.),
 the Gaussian 88(TM) system (copyright 1988, Gaussian, Inc.),
 the Gaussian 86(TM) system (copyright 1986, Carnegie Mellon
 University), and the Gaussian 82(TM) system (copyright 1983,
 Carnegie Mellon University). Gaussian is a federally registered
 trademark of Gaussian, Inc.
  
 This software contains proprietary and confidential information,
 including trade secrets, belonging to Gaussian, Inc.
  
 This software is provided under written license and may be
 used, copied, transmitted, or stored only in accord with that
 written license.
  
 The following legend is applicable only to US Government
 contracts under FAR:
  
                    RESTRICTED RIGHTS LEGEND
  
 Use, reproduction and disclosure by the US Government is
 subject to restrictions as set forth in subparagraphs (a)
 and (c) of the Commercial Computer Software - Restricted
 Rights clause in FAR 52.227-19.
  
 Gaussian, Inc.
 340 Quinnipiac St., Bldg. 40, Wallingford CT 06492
  
  
 ---------------------------------------------------------------
 Warning -- This program may not be used in any manner that
 competes with the business of Gaussian, Inc. or will provide
 assistance to any competitor of Gaussian, Inc.  The licensee
 of this program is prohibited from giving any competitor of
 Gaussian, Inc. access to this program.  By using this program,
 the user acknowledges that Gaussian, Inc. is engaged in the
 business of creating and licensing software in the field of
 computational chemistry and represents and warrants to the
 licensee that it is not a competitor of Gaussian, Inc. and that
 it will not use this program in any manner prohibited above.
 ---------------------------------------------------------------
  

 Cite this work as:
 Gaussian 16, Revision C.01,
 M. J. Frisch, G. W. Trucks, H. B. Schlegel, G. E. Scuseria, 
 M. A. Robb, J. R. Cheeseman, G. Scalmani, V. Barone, 
 G. A. Petersson, H. Nakatsuji, X. Li, M. Caricato, A. V. Marenich, 
 J. Bloino, B. G. Janesko, R. Gomperts, B. Mennucci, H. P. Hratchian, 
 J. V. Ortiz, A. F. Izmaylov, J. L. Sonnenberg, D. Williams-Young, 
 F. Ding, F. Lipparini, F. Egidi, J. Goings, B. Peng, A. Petrone, 
 T. Henderson, D. Ranasinghe, V. G. Zakrzewski, J. Gao, N. Rega, 
 G. Zheng, W. Liang, M. Hada, M. Ehara, K. Toyota, R. Fukuda, 
 J. Hasegawa, M. Ishida, T. Nakajima, Y. Honda, O. Kitao, H. Nakai, 
 T. Vreven, K. Throssell, J. A. Montgomery, Jr., J. E. Peralta, 
 F. Ogliaro, M. J. Bearpark, J. J. Heyd, E. N. Brothers, K. N. Kudin, 
 V. N. Staroverov, T. A. Keith, R. Kobayashi, J. Normand, 
 K. Raghavachari, A. P. Rendell, J. C. Burant, S. S. Iyengar, 
 J. Tomasi, M. Cossi, J. M. Millam, M. Klene, C. Adamo, R. Cammi, 
 J. W. Ochterski, R. L. Martin, K. Morokuma, O. Farkas, 
 J. B. Foresman, and D. J. Fox, Gaussian, Inc., Wallingford CT, 2019.
 
 ******************************************
 Gaussian 16:  AS64L-G16RevC.01  3-Jul-2019
                 6-Sep-2022 
 ******************************************
 %nprocshared=12
 Will use up to   12 processors via shared memory.
 %mem=24GB
 ----------------------------
 # B3LYP/6-31+G(d,p) opt freq
 ----------------------------
 1/18=20,19=15,26=3,38=1/1,3;
 2/9=110,12=2,17=6,18=5,40=1/2;
 3/5=1,6=6,7=111,11=2,25=1,30=1,71=1,74=-5/1,2,3;
 4//1;
 5/5=2,38=5/2;
 6/7=2,8=2,9=2,10=2,28=1/1;
 7//1,2,3,16;
 1/18=20,19=15,26=3/3(2);
 2/9=110/2;
 99//99;
 2/9=110/2;
 3/5=1,6=6,7=111,11=2,25=1,30=1,71=1,74=-5/1,2,3;
 4/5=5,16=3,69=1/1;
 5/5=2,38=5/2;
 7//1,2,3,16;
 1/18=20,19=15,26=3/3(-5);
 2/9=110/2;
 6/7=2,8=2,9=2,10=2,19=2,28=1/1;
 99/9=1/99;
 -----------------------
 Strychnine_rdkit_conf_2
 -----------------------
 Symbolic Z-matrix:
 Charge =  0 Multiplicity = 1
 C                     0.9348   -1.1902    1.9279 
 C                    -0.3652   -1.9496    2.1362 
 N                    -0.6888   -2.5702    0.8429 
 C                    -2.1125   -2.4327    0.4887 
 C                    -2.4053   -1.0747   -0.1182 
 C                    -3.2664   -0.2165    0.4636 
 C                    -3.5716    1.2115    0.1132 
 O                    -2.9794    1.6856   -1.0836 
 C                    -1.5678    1.8884   -1.1152 
 C                    -1.0325    2.9754   -0.1564 
 C                     0.493     2.9207   -0.0587 
 O                     1.1824    3.927    -0.1862 
 N                     0.9605    1.6371    0.1836 
 C                     0.0282    0.5125    0.2509 
 C                    -0.767     0.5758   -1.0629 
 C                    -1.5317   -0.7202   -1.3085 
 C                    -0.4494   -1.7969   -1.5163 
 C                     0.2566   -2.0435   -0.1819 
 C                     0.8772   -0.777     0.4515 
 C                     2.23     -0.2743    0.008 
 C                     3.3786   -1.0042   -0.2599 
 C                     4.5437   -0.3102   -0.5955 
 C                     4.5525    1.0927   -0.6543 
 C                     3.3949    1.8266   -0.3842 
 C                     2.2467    1.1315   -0.055 
 H                     1.0272   -0.3416    2.6149 
 H                     1.7842   -1.8607    2.1152 
 H                    -0.2566   -2.7131    2.9132 
 H                    -1.1407   -1.2506    2.4716 
 H                    -2.7391   -2.634     1.367 
 H                    -2.3838   -3.2132   -0.2335 
 H                    -3.8096   -0.5594    1.3442 
 H                    -4.6553    1.2905   -0.0284 
 H                    -3.3236    1.8659    0.9537 
 H                    -1.3987    2.287    -2.1257 
 H                    -1.4396    2.8842    0.8552 
 H                    -1.3374    3.9631   -0.521 
 H                    -0.6296    0.6841    1.1121 
 H                    -0.0361    0.6695   -1.8841 
 H                    -2.1398   -0.6541   -2.2183 
 H                     0.2769   -1.4858   -2.2777 
 H                    -0.8954   -2.7254   -1.896 
 H                     1.0295   -2.8078   -0.3302 
 H                     3.389    -2.0879   -0.1973 
 H                     5.4581   -0.8604   -0.8067 
 H                     5.4699    1.6153   -0.9158 
 H                     3.409     2.9098   -0.4422 
 

 GradGradGradGradGradGradGradGradGradGradGradGradGradGradGradGradGradGrad
 Berny optimization.
 Initialization pass.
                           ----------------------------
                           !    Initial Parameters    !
                           ! (Angstroms and Degrees)  !
 --------------------------                            --------------------------
 ! Name  Definition              Value          Derivative Info.                !
 --------------------------------------------------------------------------------
 ! R1    R(1,2)                  1.5199         estimate D2E/DX2                !
 ! R2    R(1,19)                 1.5342         estimate D2E/DX2                !
 ! R3    R(1,26)                 1.0957         estimate D2E/DX2                !
 ! R4    R(1,27)                 1.0982         estimate D2E/DX2                !
 ! R5    R(2,3)                  1.4705         estimate D2E/DX2                !
 ! R6    R(2,28)                 1.0947         estimate D2E/DX2                !
 ! R7    R(2,29)                 1.0966         estimate D2E/DX2                !
 ! R8    R(3,4)                  1.4735         estimate D2E/DX2                !
 ! R9    R(3,18)                 1.4904         estimate D2E/DX2                !
 ! R10   R(4,5)                  1.516          estimate D2E/DX2                !
 ! R11   R(4,30)                 1.0975         estimate D2E/DX2                !
 ! R12   R(4,31)                 1.0974         estimate D2E/DX2                !
 ! R13   R(5,6)                  1.3478         estimate D2E/DX2                !
 ! R14   R(5,16)                 1.5184         estimate D2E/DX2                !
 ! R15   R(6,7)                  1.5017         estimate D2E/DX2                !
 ! R16   R(6,32)                 1.09           estimate D2E/DX2                !
 ! R17   R(7,8)                  1.417          estimate D2E/DX2                !
 ! R18   R(7,33)                 1.0958         estimate D2E/DX2                !
 ! R19   R(7,34)                 1.0937         estimate D2E/DX2                !
 ! R20   R(8,9)                  1.4264         estimate D2E/DX2                !
 ! R21   R(9,10)                 1.5451         estimate D2E/DX2                !
 ! R22   R(9,15)                 1.5385         estimate D2E/DX2                !
 ! R23   R(9,35)                 1.0994         estimate D2E/DX2                !
 ! R24   R(10,11)                1.5296         estimate D2E/DX2                !
 ! R25   R(10,36)                1.0942         estimate D2E/DX2                !
 ! R26   R(10,37)                1.0961         estimate D2E/DX2                !
 ! R27   R(11,12)                1.2264         estimate D2E/DX2                !
 ! R28   R(11,13)                1.3874         estimate D2E/DX2                !
 ! R29   R(13,14)                1.4623         estimate D2E/DX2                !
 ! R30   R(13,25)                1.4025         estimate D2E/DX2                !
 ! R31   R(14,15)                1.537          estimate D2E/DX2                !
 ! R32   R(14,19)                1.5569         estimate D2E/DX2                !
 ! R33   R(14,38)                1.0972         estimate D2E/DX2                !
 ! R34   R(15,16)                1.5247         estimate D2E/DX2                !
 ! R35   R(15,39)                1.1033         estimate D2E/DX2                !
 ! R36   R(16,17)                1.5407         estimate D2E/DX2                !
 ! R37   R(16,40)                1.0963         estimate D2E/DX2                !
 ! R38   R(17,18)                1.5297         estimate D2E/DX2                !
 ! R39   R(17,41)                1.0973         estimate D2E/DX2                !
 ! R40   R(17,42)                1.0978         estimate D2E/DX2                !
 ! R41   R(18,19)                1.5461         estimate D2E/DX2                !
 ! R42   R(18,43)                1.0971         estimate D2E/DX2                !
 ! R43   R(19,20)                1.5098         estimate D2E/DX2                !
 ! R44   R(20,21)                1.387          estimate D2E/DX2                !
 ! R45   R(20,25)                1.4073         estimate D2E/DX2                !
 ! R46   R(21,22)                1.397          estimate D2E/DX2                !
 ! R47   R(21,44)                1.0856         estimate D2E/DX2                !
 ! R48   R(22,23)                1.4042         estimate D2E/DX2                !
 ! R49   R(22,45)                1.0879         estimate D2E/DX2                !
 ! R50   R(23,24)                1.397          estimate D2E/DX2                !
 ! R51   R(23,46)                1.0877         estimate D2E/DX2                !
 ! R52   R(24,25)                1.382          estimate D2E/DX2                !
 ! R53   R(24,47)                1.0848         estimate D2E/DX2                !
 ! A1    A(2,1,19)             103.5526         estimate D2E/DX2                !
 ! A2    A(2,1,26)             111.9101         estimate D2E/DX2                !
 ! A3    A(2,1,27)             109.4576         estimate D2E/DX2                !
 ! A4    A(19,1,26)            113.4493         estimate D2E/DX2                !
 ! A5    A(19,1,27)            110.9519         estimate D2E/DX2                !
 ! A6    A(26,1,27)            107.4982         estimate D2E/DX2                !
 ! A7    A(1,2,3)              106.1735         estimate D2E/DX2                !
 ! A8    A(1,2,28)             111.1545         estimate D2E/DX2                !
 ! A9    A(1,2,29)             109.1663         estimate D2E/DX2                !
 ! A10   A(3,2,28)             110.5922         estimate D2E/DX2                !
 ! A11   A(3,2,29)             112.4814         estimate D2E/DX2                !
 ! A12   A(28,2,29)            107.3155         estimate D2E/DX2                !
 ! A13   A(2,3,4)              112.6212         estimate D2E/DX2                !
 ! A14   A(2,3,18)             108.4206         estimate D2E/DX2                !
 ! A15   A(4,3,18)             114.4945         estimate D2E/DX2                !
 ! A16   A(3,4,5)              111.4955         estimate D2E/DX2                !
 ! A17   A(3,4,30)             110.0072         estimate D2E/DX2                !
 ! A18   A(3,4,31)             109.3098         estimate D2E/DX2                !
 ! A19   A(5,4,30)             111.9871         estimate D2E/DX2                !
 ! A20   A(5,4,31)             109.0194         estimate D2E/DX2                !
 ! A21   A(30,4,31)            104.7765         estimate D2E/DX2                !
 ! A22   A(4,5,6)              121.398          estimate D2E/DX2                !
 ! A23   A(4,5,16)             114.32           estimate D2E/DX2                !
 ! A24   A(6,5,16)             123.87           estimate D2E/DX2                !
 ! A25   A(5,6,7)              129.3923         estimate D2E/DX2                !
 ! A26   A(5,6,32)             117.8286         estimate D2E/DX2                !
 ! A27   A(7,6,32)             112.729          estimate D2E/DX2                !
 ! A28   A(6,7,8)              115.487          estimate D2E/DX2                !
 ! A29   A(6,7,33)             107.4401         estimate D2E/DX2                !
 ! A30   A(6,7,34)             110.0944         estimate D2E/DX2                !
 ! A31   A(8,7,33)             106.2641         estimate D2E/DX2                !
 ! A32   A(8,7,34)             110.7395         estimate D2E/DX2                !
 ! A33   A(33,7,34)            106.2857         estimate D2E/DX2                !
 ! A34   A(7,8,9)              118.6766         estimate D2E/DX2                !
 ! A35   A(8,9,10)             115.4111         estimate D2E/DX2                !
 ! A36   A(8,9,15)             113.1441         estimate D2E/DX2                !
 ! A37   A(8,9,35)             102.9515         estimate D2E/DX2                !
 ! A38   A(10,9,15)            113.5025         estimate D2E/DX2                !
 ! A39   A(10,9,35)            105.1896         estimate D2E/DX2                !
 ! A40   A(15,9,35)            105.1012         estimate D2E/DX2                !
 ! A41   A(9,10,11)            111.0997         estimate D2E/DX2                !
 ! A42   A(9,10,36)            112.7145         estimate D2E/DX2                !
 ! A43   A(9,10,37)            109.3384         estimate D2E/DX2                !
 ! A44   A(11,10,36)           107.9995         estimate D2E/DX2                !
 ! A45   A(11,10,37)           109.3228         estimate D2E/DX2                !
 ! A46   A(36,10,37)           106.2078         estimate D2E/DX2                !
 ! A47   A(10,11,12)           121.6428         estimate D2E/DX2                !
 ! A48   A(10,11,13)           112.352          estimate D2E/DX2                !
 ! A49   A(12,11,13)           126.0051         estimate D2E/DX2                !
 ! A50   A(11,13,14)           120.3124         estimate D2E/DX2                !
 ! A51   A(11,13,25)           127.7962         estimate D2E/DX2                !
 ! A52   A(14,13,25)           108.3774         estimate D2E/DX2                !
 ! A53   A(13,14,15)           105.0007         estimate D2E/DX2                !
 ! A54   A(13,14,19)           107.1715         estimate D2E/DX2                !
 ! A55   A(13,14,38)           107.3419         estimate D2E/DX2                !
 ! A56   A(15,14,19)           115.238          estimate D2E/DX2                !
 ! A57   A(15,14,38)           110.751          estimate D2E/DX2                !
 ! A58   A(19,14,38)           110.8147         estimate D2E/DX2                !
 ! A59   A(9,15,14)            109.4807         estimate D2E/DX2                !
 ! A60   A(9,15,16)            117.3013         estimate D2E/DX2                !
 ! A61   A(9,15,39)            104.3032         estimate D2E/DX2                !
 ! A62   A(14,15,16)           111.233          estimate D2E/DX2                !
 ! A63   A(14,15,39)           107.2755         estimate D2E/DX2                !
 ! A64   A(16,15,39)           106.5312         estimate D2E/DX2                !
 ! A65   A(5,16,15)            111.1447         estimate D2E/DX2                !
 ! A66   A(5,16,17)            110.2868         estimate D2E/DX2                !
 ! A67   A(5,16,40)            110.2118         estimate D2E/DX2                !
 ! A68   A(15,16,17)           105.2729         estimate D2E/DX2                !
 ! A69   A(15,16,40)           111.1385         estimate D2E/DX2                !
 ! A70   A(17,16,40)           108.6538         estimate D2E/DX2                !
 ! A71   A(16,17,18)           108.6156         estimate D2E/DX2                !
 ! A72   A(16,17,41)           111.1261         estimate D2E/DX2                !
 ! A73   A(16,17,42)           110.6288         estimate D2E/DX2                !
 ! A74   A(18,17,41)           110.2141         estimate D2E/DX2                !
 ! A75   A(18,17,42)           110.6633         estimate D2E/DX2                !
 ! A76   A(41,17,42)           105.5871         estimate D2E/DX2                !
 ! A77   A(3,18,17)            111.3475         estimate D2E/DX2                !
 ! A78   A(3,18,19)            105.2129         estimate D2E/DX2                !
 ! A79   A(3,18,43)            107.0758         estimate D2E/DX2                !
 ! A80   A(17,18,19)           114.2418         estimate D2E/DX2                !
 ! A81   A(17,18,43)           108.636          estimate D2E/DX2                !
 ! A82   A(19,18,43)           110.0772         estimate D2E/DX2                !
 ! A83   A(1,19,14)            111.5638         estimate D2E/DX2                !
 ! A84   A(1,19,18)            100.8765         estimate D2E/DX2                !
 ! A85   A(1,19,20)            109.7986         estimate D2E/DX2                !
 ! A86   A(14,19,18)           114.0044         estimate D2E/DX2                !
 ! A87   A(14,19,20)           100.0782         estimate D2E/DX2                !
 ! A88   A(18,19,20)           120.8019         estimate D2E/DX2                !
 ! A89   A(19,20,21)           128.5738         estimate D2E/DX2                !
 ! A90   A(19,20,25)           110.8784         estimate D2E/DX2                !
 ! A91   A(21,20,25)           120.4775         estimate D2E/DX2                !
 ! A92   A(20,21,22)           118.3989         estimate D2E/DX2                !
 ! A93   A(20,21,44)           121.4755         estimate D2E/DX2                !
 ! A94   A(22,21,44)           120.1177         estimate D2E/DX2                !
 ! A95   A(21,22,23)           120.7708         estimate D2E/DX2                !
 ! A96   A(21,22,45)           119.7613         estimate D2E/DX2                !
 ! A97   A(23,22,45)           119.4662         estimate D2E/DX2                !
 ! A98   A(22,23,24)           120.7692         estimate D2E/DX2                !
 ! A99   A(22,23,46)           119.6949         estimate D2E/DX2                !
 ! A100  A(24,23,46)           119.5358         estimate D2E/DX2                !
 ! A101  A(23,24,25)           118.0524         estimate D2E/DX2                !
 ! A102  A(23,24,47)           120.2277         estimate D2E/DX2                !
 ! A103  A(25,24,47)           121.7182         estimate D2E/DX2                !
 ! A104  A(13,25,20)           109.9759         estimate D2E/DX2                !
 ! A105  A(13,25,24)           128.401          estimate D2E/DX2                !
 ! A106  A(20,25,24)           121.5305         estimate D2E/DX2                !
 ! D1    D(19,1,2,3)            30.2912         estimate D2E/DX2                !
 ! D2    D(19,1,2,28)          150.6157         estimate D2E/DX2                !
 ! D3    D(19,1,2,29)          -91.1963         estimate D2E/DX2                !
 ! D4    D(26,1,2,3)           152.8493         estimate D2E/DX2                !
 ! D5    D(26,1,2,28)          -86.8262         estimate D2E/DX2                !
 ! D6    D(26,1,2,29)           31.3618         estimate D2E/DX2                !
 ! D7    D(27,1,2,3)           -88.0854         estimate D2E/DX2                !
 ! D8    D(27,1,2,28)           32.2391         estimate D2E/DX2                !
 ! D9    D(27,1,2,29)          150.4271         estimate D2E/DX2                !
 ! D10   D(2,1,19,14)           82.3048         estimate D2E/DX2                !
 ! D11   D(2,1,19,18)          -39.1186         estimate D2E/DX2                !
 ! D12   D(2,1,19,20)         -167.6811         estimate D2E/DX2                !
 ! D13   D(26,1,19,14)         -39.2256         estimate D2E/DX2                !
 ! D14   D(26,1,19,18)        -160.649          estimate D2E/DX2                !
 ! D15   D(26,1,19,20)          70.7885         estimate D2E/DX2                !
 ! D16   D(27,1,19,14)        -160.3592         estimate D2E/DX2                !
 ! D17   D(27,1,19,18)          78.2174         estimate D2E/DX2                !
 ! D18   D(27,1,19,20)         -50.3451         estimate D2E/DX2                !
 ! D19   D(1,2,3,4)           -136.1839         estimate D2E/DX2                !
 ! D20   D(1,2,3,18)            -8.4351         estimate D2E/DX2                !
 ! D21   D(28,2,3,4)           103.1276         estimate D2E/DX2                !
 ! D22   D(28,2,3,18)         -129.1236         estimate D2E/DX2                !
 ! D23   D(29,2,3,4)           -16.8448         estimate D2E/DX2                !
 ! D24   D(29,2,3,18)          110.904          estimate D2E/DX2                !
 ! D25   D(2,3,4,5)             81.6719         estimate D2E/DX2                !
 ! D26   D(2,3,4,30)           -43.1917         estimate D2E/DX2                !
 ! D27   D(2,3,4,31)          -157.7231         estimate D2E/DX2                !
 ! D28   D(18,3,4,5)           -42.8022         estimate D2E/DX2                !
 ! D29   D(18,3,4,30)         -167.6658         estimate D2E/DX2                !
 ! D30   D(18,3,4,31)           77.8028         estimate D2E/DX2                !
 ! D31   D(2,3,18,17)         -140.894          estimate D2E/DX2                !
 ! D32   D(2,3,18,19)          -16.6218         estimate D2E/DX2                !
 ! D33   D(2,3,18,43)          100.4876         estimate D2E/DX2                !
 ! D34   D(4,3,18,17)          -14.2209         estimate D2E/DX2                !
 ! D35   D(4,3,18,19)          110.0513         estimate D2E/DX2                !
 ! D36   D(4,3,18,43)         -132.8393         estimate D2E/DX2                !
 ! D37   D(3,4,5,6)           -118.7542         estimate D2E/DX2                !
 ! D38   D(3,4,5,16)            54.1506         estimate D2E/DX2                !
 ! D39   D(30,4,5,6)             4.9956         estimate D2E/DX2                !
 ! D40   D(30,4,5,16)          177.9005         estimate D2E/DX2                !
 ! D41   D(31,4,5,6)           120.4707         estimate D2E/DX2                !
 ! D42   D(31,4,5,16)          -66.6244         estimate D2E/DX2                !
 ! D43   D(4,5,6,7)            172.3985         estimate D2E/DX2                !
 ! D44   D(4,5,6,32)            -4.8192         estimate D2E/DX2                !
 ! D45   D(16,5,6,7)             0.1895         estimate D2E/DX2                !
 ! D46   D(16,5,6,32)         -177.0282         estimate D2E/DX2                !
 ! D47   D(4,5,16,15)         -122.0896         estimate D2E/DX2                !
 ! D48   D(4,5,16,17)           -5.7252         estimate D2E/DX2                !
 ! D49   D(4,5,16,40)          114.2396         estimate D2E/DX2                !
 ! D50   D(6,5,16,15)           50.6154         estimate D2E/DX2                !
 ! D51   D(6,5,16,17)          166.9798         estimate D2E/DX2                !
 ! D52   D(6,5,16,40)          -73.0554         estimate D2E/DX2                !
 ! D53   D(5,6,7,8)              7.4918         estimate D2E/DX2                !
 ! D54   D(5,6,7,33)           125.8487         estimate D2E/DX2                !
 ! D55   D(5,6,7,34)          -118.8157         estimate D2E/DX2                !
 ! D56   D(32,6,7,8)          -175.1758         estimate D2E/DX2                !
 ! D57   D(32,6,7,33)          -56.8189         estimate D2E/DX2                !
 ! D58   D(32,6,7,34)           58.5167         estimate D2E/DX2                !
 ! D59   D(6,7,8,9)            -70.2785         estimate D2E/DX2                !
 ! D60   D(33,7,8,9)           170.7135         estimate D2E/DX2                !
 ! D61   D(34,7,8,9)            55.7003         estimate D2E/DX2                !
 ! D62   D(7,8,9,10)           -63.8017         estimate D2E/DX2                !
 ! D63   D(7,8,9,15)            69.2937         estimate D2E/DX2                !
 ! D64   D(7,8,9,35)          -177.8125         estimate D2E/DX2                !
 ! D65   D(8,9,10,11)          168.564          estimate D2E/DX2                !
 ! D66   D(8,9,10,36)           47.1923         estimate D2E/DX2                !
 ! D67   D(8,9,10,37)          -70.6859         estimate D2E/DX2                !
 ! D68   D(15,9,10,11)          35.6342         estimate D2E/DX2                !
 ! D69   D(15,9,10,36)         -85.7375         estimate D2E/DX2                !
 ! D70   D(15,9,10,37)         156.3843         estimate D2E/DX2                !
 ! D71   D(35,9,10,11)         -78.7241         estimate D2E/DX2                !
 ! D72   D(35,9,10,36)         159.9042         estimate D2E/DX2                !
 ! D73   D(35,9,10,37)          42.026          estimate D2E/DX2                !
 ! D74   D(8,9,15,14)         -114.2551         estimate D2E/DX2                !
 ! D75   D(8,9,15,16)           13.6895         estimate D2E/DX2                !
 ! D76   D(8,9,15,39)          131.209          estimate D2E/DX2                !
 ! D77   D(10,9,15,14)          19.7534         estimate D2E/DX2                !
 ! D78   D(10,9,15,16)         147.698          estimate D2E/DX2                !
 ! D79   D(10,9,15,39)         -94.7825         estimate D2E/DX2                !
 ! D80   D(35,9,15,14)         134.1646         estimate D2E/DX2                !
 ! D81   D(35,9,15,16)         -97.8908         estimate D2E/DX2                !
 ! D82   D(35,9,15,39)          19.6286         estimate D2E/DX2                !
 ! D83   D(9,10,11,12)         130.763          estimate D2E/DX2                !
 ! D84   D(9,10,11,13)         -49.3006         estimate D2E/DX2                !
 ! D85   D(36,10,11,12)       -105.1426         estimate D2E/DX2                !
 ! D86   D(36,10,11,13)         74.7938         estimate D2E/DX2                !
 ! D87   D(37,10,11,12)         10.0037         estimate D2E/DX2                !
 ! D88   D(37,10,11,13)       -170.0599         estimate D2E/DX2                !
 ! D89   D(10,11,13,14)          3.0004         estimate D2E/DX2                !
 ! D90   D(10,11,13,25)        159.2915         estimate D2E/DX2                !
 ! D91   D(12,11,13,14)       -177.0665         estimate D2E/DX2                !
 ! D92   D(12,11,13,25)        -20.7754         estimate D2E/DX2                !
 ! D93   D(11,13,14,15)         53.8118         estimate D2E/DX2                !
 ! D94   D(11,13,14,19)        176.824          estimate D2E/DX2                !
 ! D95   D(11,13,14,38)        -64.0896         estimate D2E/DX2                !
 ! D96   D(25,13,14,15)       -106.6276         estimate D2E/DX2                !
 ! D97   D(25,13,14,19)         16.3847         estimate D2E/DX2                !
 ! D98   D(25,13,14,38)        135.4711         estimate D2E/DX2                !
 ! D99   D(11,13,25,20)       -165.3897         estimate D2E/DX2                !
 ! D100  D(11,13,25,24)         11.1071         estimate D2E/DX2                !
 ! D101  D(14,13,25,20)         -6.8449         estimate D2E/DX2                !
 ! D102  D(14,13,25,24)        169.6519         estimate D2E/DX2                !
 ! D103  D(13,14,15,9)         -63.0884         estimate D2E/DX2                !
 ! D104  D(13,14,15,16)        165.6577         estimate D2E/DX2                !
 ! D105  D(13,14,15,39)         49.5209         estimate D2E/DX2                !
 ! D106  D(19,14,15,9)         179.2522         estimate D2E/DX2                !
 ! D107  D(19,14,15,16)         47.9984         estimate D2E/DX2                !
 ! D108  D(19,14,15,39)        -68.1384         estimate D2E/DX2                !
 ! D109  D(38,14,15,9)          52.4758         estimate D2E/DX2                !
 ! D110  D(38,14,15,16)        -78.778          estimate D2E/DX2                !
 ! D111  D(38,14,15,39)        165.0852         estimate D2E/DX2                !
 ! D112  D(13,14,19,1)          97.6942         estimate D2E/DX2                !
 ! D113  D(13,14,19,18)       -148.847          estimate D2E/DX2                !
 ! D114  D(13,14,19,20)        -18.4195         estimate D2E/DX2                !
 ! D115  D(15,14,19,1)        -145.8727         estimate D2E/DX2                !
 ! D116  D(15,14,19,18)        -32.4139         estimate D2E/DX2                !
 ! D117  D(15,14,19,20)         98.0136         estimate D2E/DX2                !
 ! D118  D(38,14,19,1)         -19.1286         estimate D2E/DX2                !
 ! D119  D(38,14,19,18)         94.3302         estimate D2E/DX2                !
 ! D120  D(38,14,19,20)       -135.2424         estimate D2E/DX2                !
 ! D121  D(9,15,16,5)          -73.2331         estimate D2E/DX2                !
 ! D122  D(9,15,16,17)         167.3626         estimate D2E/DX2                !
 ! D123  D(9,15,16,40)          49.9074         estimate D2E/DX2                !
 ! D124  D(14,15,16,5)          53.8648         estimate D2E/DX2                !
 ! D125  D(14,15,16,17)        -65.5396         estimate D2E/DX2                !
 ! D126  D(14,15,16,40)        177.0052         estimate D2E/DX2                !
 ! D127  D(39,15,16,5)         170.4579         estimate D2E/DX2                !
 ! D128  D(39,15,16,17)         51.0536         estimate D2E/DX2                !
 ! D129  D(39,15,16,40)        -66.4016         estimate D2E/DX2                !
 ! D130  D(5,16,17,18)         -50.3994         estimate D2E/DX2                !
 ! D131  D(5,16,17,41)        -171.8006         estimate D2E/DX2                !
 ! D132  D(5,16,17,42)          71.2466         estimate D2E/DX2                !
 ! D133  D(15,16,17,18)         69.574          estimate D2E/DX2                !
 ! D134  D(15,16,17,41)        -51.8273         estimate D2E/DX2                !
 ! D135  D(15,16,17,42)       -168.78           estimate D2E/DX2                !
 ! D136  D(40,16,17,18)       -171.2999         estimate D2E/DX2                !
 ! D137  D(40,16,17,41)         67.2988         estimate D2E/DX2                !
 ! D138  D(40,16,17,42)        -49.6539         estimate D2E/DX2                !
 ! D139  D(16,17,18,3)          62.5005         estimate D2E/DX2                !
 ! D140  D(16,17,18,19)        -56.5103         estimate D2E/DX2                !
 ! D141  D(16,17,18,43)       -179.8205         estimate D2E/DX2                !
 ! D142  D(41,17,18,3)        -175.5407         estimate D2E/DX2                !
 ! D143  D(41,17,18,19)         65.4485         estimate D2E/DX2                !
 ! D144  D(41,17,18,43)        -57.8617         estimate D2E/DX2                !
 ! D145  D(42,17,18,3)         -59.1244         estimate D2E/DX2                !
 ! D146  D(42,17,18,19)       -178.1351         estimate D2E/DX2                !
 ! D147  D(42,17,18,43)         58.5546         estimate D2E/DX2                !
 ! D148  D(3,18,19,1)           34.3303         estimate D2E/DX2                !
 ! D149  D(3,18,19,14)         -85.3565         estimate D2E/DX2                !
 ! D150  D(3,18,19,20)         155.4014         estimate D2E/DX2                !
 ! D151  D(17,18,19,1)         156.7539         estimate D2E/DX2                !
 ! D152  D(17,18,19,14)         37.0672         estimate D2E/DX2                !
 ! D153  D(17,18,19,20)        -82.175          estimate D2E/DX2                !
 ! D154  D(43,18,19,1)         -80.7178         estimate D2E/DX2                !
 ! D155  D(43,18,19,14)        159.5954         estimate D2E/DX2                !
 ! D156  D(43,18,19,20)         40.3532         estimate D2E/DX2                !
 ! D157  D(1,19,20,21)          74.3734         estimate D2E/DX2                !
 ! D158  D(1,19,20,25)        -102.5455         estimate D2E/DX2                !
 ! D159  D(14,19,20,21)       -168.1922         estimate D2E/DX2                !
 ! D160  D(14,19,20,25)         14.8889         estimate D2E/DX2                !
 ! D161  D(18,19,20,21)        -42.2482         estimate D2E/DX2                !
 ! D162  D(18,19,20,25)        140.8329         estimate D2E/DX2                !
 ! D163  D(19,20,21,22)       -176.8396         estimate D2E/DX2                !
 ! D164  D(19,20,21,44)          2.1388         estimate D2E/DX2                !
 ! D165  D(25,20,21,22)         -0.1802         estimate D2E/DX2                !
 ! D166  D(25,20,21,44)        178.7981         estimate D2E/DX2                !
 ! D167  D(19,20,25,13)         -5.9241         estimate D2E/DX2                !
 ! D168  D(19,20,25,24)        177.2965         estimate D2E/DX2                !
 ! D169  D(21,20,25,13)        176.8707         estimate D2E/DX2                !
 ! D170  D(21,20,25,24)          0.0913         estimate D2E/DX2                !
 ! D171  D(20,21,22,23)          0.2732         estimate D2E/DX2                !
 ! D172  D(20,21,22,45)        179.7977         estimate D2E/DX2                !
 ! D173  D(44,21,22,23)       -178.7195         estimate D2E/DX2                !
 ! D174  D(44,21,22,45)          0.8051         estimate D2E/DX2                !
 ! D175  D(21,22,23,24)         -0.2784         estimate D2E/DX2                !
 ! D176  D(21,22,23,46)        179.8951         estimate D2E/DX2                !
 ! D177  D(45,22,23,24)       -179.8043         estimate D2E/DX2                !
 ! D178  D(45,22,23,46)          0.3691         estimate D2E/DX2                !
 ! D179  D(22,23,24,25)          0.18           estimate D2E/DX2                !
 ! D180  D(22,23,24,47)       -179.3668         estimate D2E/DX2                !
 ! D181  D(46,23,24,25)       -179.9932         estimate D2E/DX2                !
 ! D182  D(46,23,24,47)          0.46           estimate D2E/DX2                !
 ! D183  D(23,24,25,13)       -176.2246         estimate D2E/DX2                !
 ! D184  D(23,24,25,20)         -0.0879         estimate D2E/DX2                !
 ! D185  D(47,24,25,13)          3.315          estimate D2E/DX2                !
 ! D186  D(47,24,25,20)        179.4517         estimate D2E/DX2                !
 --------------------------------------------------------------------------------
 Trust Radius=3.00D-01 FncErr=1.00D-07 GrdErr=1.00D-06 EigMax=2.50D+02 EigMin=1.00D-04
 Number of steps in this run=    282 maximum allowed number of steps=    282.
 GradGradGradGradGradGradGradGradGradGradGradGradGradGradGradGradGradGrad

                          Input orientation:                          
 ---------------------------------------------------------------------
 Center     Atomic      Atomic             Coordinates (Angstroms)
 Number     Number       Type             X           Y           Z
 ---------------------------------------------------------------------
      1          6           0        0.934800   -1.190200    1.927900
      2          6           0       -0.365200   -1.949600    2.136200
      3          7           0       -0.688800   -2.570200    0.842900
      4          6           0       -2.112500   -2.432700    0.488700
      5          6           0       -2.405300   -1.074700   -0.118200
      6          6           0       -3.266400   -0.216500    0.463600
      7          6           0       -3.571600    1.211500    0.113200
      8          8           0       -2.979400    1.685600   -1.083600
      9          6           0       -1.567800    1.888400   -1.115200
     10          6           0       -1.032500    2.975400   -0.156400
     11          6           0        0.493000    2.920700   -0.058700
     12          8           0        1.182400    3.927000   -0.186200
     13          7           0        0.960500    1.637100    0.183600
     14          6           0        0.028200    0.512500    0.250900
     15          6           0       -0.767000    0.575800   -1.062900
     16          6           0       -1.531700   -0.720200   -1.308500
     17          6           0       -0.449400   -1.796900   -1.516300
     18          6           0        0.256600   -2.043500   -0.181900
     19          6           0        0.877200   -0.777000    0.451500
     20          6           0        2.230000   -0.274300    0.008000
     21          6           0        3.378600   -1.004200   -0.259900
     22          6           0        4.543700   -0.310200   -0.595500
     23          6           0        4.552500    1.092700   -0.654300
     24          6           0        3.394900    1.826600   -0.384200
     25          6           0        2.246700    1.131500   -0.055000
     26          1           0        1.027200   -0.341600    2.614900
     27          1           0        1.784200   -1.860700    2.115200
     28          1           0       -0.256600   -2.713100    2.913200
     29          1           0       -1.140700   -1.250600    2.471600
     30          1           0       -2.739100   -2.634000    1.367000
     31          1           0       -2.383800   -3.213200   -0.233500
     32          1           0       -3.809600   -0.559400    1.344200
     33          1           0       -4.655300    1.290500   -0.028400
     34          1           0       -3.323600    1.865900    0.953700
     35          1           0       -1.398700    2.287000   -2.125700
     36          1           0       -1.439600    2.884200    0.855200
     37          1           0       -1.337400    3.963100   -0.521000
     38          1           0       -0.629600    0.684100    1.112100
     39          1           0       -0.036100    0.669500   -1.884100
     40          1           0       -2.139800   -0.654100   -2.218300
     41          1           0        0.276900   -1.485800   -2.277700
     42          1           0       -0.895400   -2.725400   -1.896000
     43          1           0        1.029500   -2.807800   -0.330200
     44          1           0        3.389000   -2.087900   -0.197300
     45          1           0        5.458100   -0.860400   -0.806700
     46          1           0        5.469900    1.615300   -0.915800
     47          1           0        3.409000    2.909800   -0.442200
 ---------------------------------------------------------------------
                    Distance matrix (angstroms):
                    1          2          3          4          5
     1  C    0.000000
     2  C    1.519894   0.000000
     3  N    2.391172   1.470539   0.000000
     4  C    3.591816   2.449632   1.473528   0.000000
     5  C    3.918690   3.163823   2.471155   1.515989   0.000000
     6  C    4.554377   3.770701   3.511096   2.498731   1.347773
     7  C    5.419312   4.936201   4.810847   3.943370   2.576919
     8  O    5.714921   5.515055   5.202892   4.492665   2.980075
     9  C    5.000124   5.171856   4.948324   4.641239   3.236569
    10  C    5.056362   5.473292   5.645388   5.552486   4.276605
    11  C    4.587076   5.410537   5.688543   5.978894   4.936284
    12  O    5.542243   6.505616   6.839155   7.194278   6.155747
    13  N    3.322178   4.293547   4.566863   5.108785   4.332846
    14  C    2.556059   3.125869   3.219875   3.648746   2.928713
    15  C    3.867785   4.095526   3.679063   3.642651   2.510107
    16  C    4.096194   3.839024   2.959984   2.549493   1.518440
    17  C    3.761198   3.656660   2.494219   2.681449   2.510339
    18  C    2.374728   2.401883   1.490439   2.492753   2.833433
    19  C    1.534213   2.399325   2.412699   3.417753   3.344845
    20  C    2.490468   3.751124   3.806259   4.873096   4.705590
    21  C    3.285304   4.544350   4.495805   5.723041   5.786065
    22  C    4.490669   5.852104   5.878405   7.070042   7.007202
    23  C    4.996713   6.420767   6.567318   7.626082   7.307257
    24  C    4.527580   5.894952   6.124886   7.016769   6.490810
    25  C    3.323141   4.595275   4.808947   5.657009   5.149021
    26  H    1.095732   2.180274   3.324349   4.330259   4.448520
    27  H    1.098240   2.151340   2.870168   4.261098   4.812253
    28  H    2.170132   1.094740   2.119755   3.066136   4.060868
    29  H    2.146383   1.096583   2.144346   2.504725   2.887424
    30  H    3.987068   2.587561   2.117187   1.097525   2.179142
    31  H    4.447166   3.359600   2.108343   1.097432   2.141714
    32  H    4.821612   3.797869   3.746200   2.668573   2.091938
    33  H    6.421075   5.795576   5.603329   4.538220   3.265691
    34  H    5.331302   4.970762   5.160759   4.490095   3.261805
    35  H    5.828191   6.097597   5.736631   5.442441   4.042812
    36  H    4.836238   5.114775   5.505845   5.371829   4.189627
    37  H    6.141376   6.554838   6.705588   6.521237   5.165471
    38  H    2.574078   2.838144   3.265952   3.507430   2.785700
    39  H    4.351146   4.809449   4.284647   4.423264   3.431289
    40  H    5.189561   4.877417   3.892016   3.239138   2.158197
    41  H    4.266999   4.484408   3.441895   3.776085   3.467945
    42  H    4.508734   4.140243   2.751062   2.693288   2.857478
    43  H    2.779319   2.960545   2.094080   3.268556   3.853107
    44  H    3.368299   4.422484   4.235928   5.554816   5.882750
    45  H    5.295946   6.614971   6.590066   7.839909   7.896393
    46  H    6.043558   7.488098   7.651210   8.709289   8.360086
    47  H    5.343130   6.671319   6.962316   7.739240   7.056012
                    6          7          8          9         10
     6  C    0.000000
     7  C    1.501703   0.000000
     8  O    2.468640   1.416969   0.000000
     9  C    3.131845   2.445889   1.426443   0.000000
    10  C    3.944989   3.103394   2.512708   1.545125   0.000000
    11  C    4.924217   4.412696   3.825370   2.535494   1.529604
    12  O    6.114136   5.483074   4.811422   3.547186   2.410853
    13  N    4.623950   4.552584   4.138956   2.853478   2.424602
    14  C    3.380987   3.669622   3.493238   2.511284   2.712352
    15  C    3.033965   3.106945   2.475237   1.538485   2.578820
    16  C    2.530462   3.148633   2.816787   2.616001   3.903075
    17  C    3.788556   4.631833   4.326192   3.872097   4.996417
    18  C    4.020712   5.033609   5.019058   4.433883   5.181871
    19  C    4.181355   4.884711   4.826416   3.941691   4.254057
    20  C    5.515553   5.989761   5.671917   4.512442   4.607763
    21  C    6.730524   7.304369   6.952530   5.793578   5.941863
    22  C    7.882140   8.287094   7.798621   6.515701   6.487063
    23  C    8.006179   8.161138   7.567387   6.188993   5.914786
    24  C    7.018970   7.011268   6.414105   5.016629   4.579684
    25  C    5.699151   5.821280   5.355107   4.030798   3.763430
    26  H    4.804034   5.460731   5.817326   5.061677   4.788001
    27  H    5.562350   6.490841   6.745402   5.977218   6.040019
    28  H    4.614374   5.850787   6.537325   6.254683   6.510261
    29  H    3.101617   4.187274   4.964024   4.785485   4.977667
    30  H    2.634100   4.129521   4.972135   5.290119   6.057937
    31  H    3.200803   4.594458   5.007559   5.241142   6.334882
    32  H    1.090001   2.169814   3.409321   4.131106   4.739082
    33  H    2.107642   1.095763   2.019453   3.327353   3.997493
    34  H    2.140061   1.093702   2.074023   2.713611   2.777130
    35  H    4.057128   3.300131   1.986521   1.099358   2.118051
    36  H    3.620068   2.809611   2.750740   2.211454   1.094250
    37  H    4.707391   3.600717   2.863510   2.170377   1.096106
    38  H    2.860830   3.151399   3.368332   2.700264   2.649807
    39  H    4.090419   4.096673   3.215008   2.103100   3.048760
    40  H    2.941651   3.311557   2.732521   2.829897   4.318659
    41  H    4.656267   5.272834   4.699696   4.017406   5.110455
    42  H    4.181379   5.167022   4.945702   4.727465   5.961889
    43  H    5.079342   6.125479   6.068734   5.423697   6.142268
    44  H    6.945018   7.709241   7.455290   6.420543   6.722227
    45  H    8.839976   9.309912   8.817607   7.550784   7.567307
    46  H    9.032230   9.108821   8.451258   7.045819   6.686387
    47  H    7.426654   7.205655   6.536185   5.124912   4.451169
                   11         12         13         14         15
    11  C    0.000000
    12  O    1.226445   0.000000
    13  N    1.387406   2.330157   0.000000
    14  C    2.472108   3.630709   1.462340   0.000000
    15  C    2.845096   3.974834   2.379995   1.537017   0.000000
    16  C    4.349432   5.497487   3.740894   2.526770   1.524697
    17  C    5.026775   6.098768   4.082871   2.946935   2.436421
    18  C    4.971352   6.041854   3.765087   2.602425   2.946973
    19  C    3.752452   4.756829   2.430347   1.556872   2.612828
    20  C    3.637258   4.334294   2.301286   2.350740   3.294162
    21  C    4.875655   5.398653   3.608374   3.713014   4.508571
    22  C    5.209130   5.423996   4.151903   4.667223   5.404349
    23  C    4.491755   4.428312   3.728393   4.650302   5.360151
    24  C    3.118337   3.057129   2.506913   3.669452   4.398471
    25  C    2.505337   2.994122   1.402452   2.323463   3.225996
    26  H    4.251601   5.107954   3.135430   2.704808   4.193684
    27  H    5.408773   6.257482   4.079726   3.491594   4.748207
    28  H    6.413563   7.467793   5.277906   4.192070   5.185243
    29  H    5.145011   6.266437   4.241320   3.066979   3.996008
    30  H    6.582840   7.799828   5.773194   4.336368   4.482902
    31  H    6.777261   7.981383   5.906245   4.464664   4.202198
    32  H    5.708905   6.884038   5.378239   4.131947   4.042304
    33  H    5.400321   6.407400   5.630478   4.755887   4.086547
    34  H    4.087052   5.084441   4.358775   3.682415   3.502462
    35  H    2.872733   3.621234   3.364678   3.291371   2.111112
    36  H    2.138104   3.007795   2.786895   2.853870   3.075745
    37  H    2.156544   2.542201   3.344709   3.790427   3.477472
    38  H    2.762858   3.935140   2.073340   1.097184   2.182025
    39  H    2.946173   3.870260   2.490953   2.141730   1.103342
    40  H    4.937074   6.012730   4.542090   3.486851   2.175358
    41  H    4.938411   5.873049   4.034577   3.232472   2.610682
    42  H    6.097686   7.176008   5.176921   3.993271   3.407120
    43  H    5.759970   6.738074   4.475029   3.516343   3.900386
    44  H    5.787236   6.406889   4.462995   4.272931   5.011676
    45  H    6.285574   6.448708   5.238951   5.699753   6.393761
    46  H    5.216150   4.925335   4.641535   5.673575   6.324644
    47  H    2.941130   2.461296   2.829584   4.202052   4.824085
                   16         17         18         19         20
    16  C    0.000000
    17  C    1.540726   0.000000
    18  C    2.493665   1.529664   0.000000
    19  C    2.983894   2.583080   1.546080   0.000000
    20  C    4.010285   3.438166   2.657149   1.509791   0.000000
    21  C    5.029042   4.106154   3.291369   2.610500   1.387013
    22  C    6.130820   5.290482   4.642695   3.841527   2.391382
    23  C    6.382168   5.840534   5.339819   4.269239   2.775128
    24  C    5.622447   5.402781   4.986735   3.716980   2.434049
    25  C    4.390485   4.240269   3.749297   2.403007   1.407310
    26  H    4.699402   4.622235   3.363388   2.211871   2.871791
    27  H    4.900781   4.263899   2.764714   2.182877   2.675013
    28  H    4.839451   4.527368   3.208018   3.330759   4.535539
    29  H    3.837103   4.084077   3.101967   2.894308   4.287669
    30  H    3.504104   3.775829   3.423741   4.167039   5.666306
    31  H    2.845479   2.719078   2.888351   4.127762   5.475637
    32  H    3.500215   4.583101   4.589719   4.776019   6.192211
    33  H    3.929179   5.425447   5.938508   5.925657   7.060969
    34  H    3.875096   5.270487   5.421331   4.988371   6.026382
    35  H    3.119095   4.236836   5.027087   4.605407   4.927514
    36  H    4.204971   5.340150   5.313652   4.351428   4.915265
    37  H    4.753021   5.912425   6.223750   5.321537   5.564328
    38  H    2.940263   3.618884   3.146361   2.200375   3.211679
    39  H    2.121179   2.527691   3.216135   2.895083   3.099356
    40  H    1.096308   2.157834   3.438036   4.030537   4.918924
    41  H    2.190097   1.097281   2.168829   2.882931   3.241413
    42  H    2.184230   1.097816   2.174909   3.528332   4.404683
    43  H    3.445996   2.148464   1.097051   2.181375   2.823863
    44  H    5.226725   4.069122   3.132753   2.906637   2.162076
    45  H    7.009191   6.023215   5.370820   4.751281   3.380515
    46  H    7.391291   6.858704   6.411234   5.355885   3.862764
    47  H    6.191760   6.180127   5.877122   4.560834   3.425086
                   21         22         23         24         25
    21  C    0.000000
    22  C    1.397040   0.000000
    23  C    2.435279   1.404159   0.000000
    24  C    2.833575   2.435221   1.396997   0.000000
    25  C    2.425777   2.765293   2.382725   1.381991   0.000000
    26  H    3.772611   4.761662   5.017233   4.393369   3.284139
    27  H    2.986102   4.167347   4.904711   4.736828   3.725176
    28  H    5.118943   6.413095   7.094971   6.694414   5.464217
    29  H    5.286386   6.527163   6.904696   6.180325   4.851040
    30  H    6.536766   7.892441   8.434535   7.783933   6.407751
    31  H    6.171356   7.519888   8.174968   7.669137   6.352150
    32  H    7.378428   8.579170   8.754893   7.783648   6.441714
    33  H    8.358396   9.354434   9.231168   8.075873   6.903882
    34  H    7.391196   8.308420   8.075670   6.850530   5.708333
    35  H    6.093915   6.663263   6.245651   5.120878   4.348784
    36  H    6.291117   6.936036   6.433764   5.101668   4.182013
    37  H    6.854407   7.270074   6.553464   5.194036   4.591393
    38  H    4.560527   5.537830   5.490108   4.443064   3.136143
    39  H    4.135151   4.857455   4.769356   3.919227   2.961457
    40  H    5.866058   6.886285   7.091141   6.336458   5.206690
    41  H    3.731487   4.734703   5.250223   4.927399   3.958632
    42  H    4.889420   6.091658   6.767520   6.435287   5.304503
    43  H    2.962463   4.319490   5.265973   5.203431   4.132239
    44  H    1.085556   2.156876   3.417426   3.918964   3.419011
    45  H    2.154992   1.087866   2.158225   3.413981   3.853026
    46  H    3.415483   2.160553   1.087711   2.152411   3.371062
    47  H    3.918361   3.417520   2.157413   1.084843   2.159448
                   26         27         28         29         30
    26  H    0.000000
    27  H    1.769298   0.000000
    28  H    2.713142   2.351224   0.000000
    29  H    2.355123   3.009034   1.765092   0.000000
    30  H    4.582288   4.649520   2.925713   2.385125   0.000000
    31  H    5.290973   4.971707   3.831031   3.565763   1.738767
    32  H    5.005672   5.794689   4.441170   2.978559   2.334621
    33  H    6.476233   7.482796   6.635540   5.005957   4.584830
    34  H    5.153843   6.428550   5.849220   4.096541   4.556485
    35  H    5.938671   6.731976   7.189986   5.806578   6.181575
    36  H    4.425769   5.873207   6.079854   4.449569   5.692203
    37  H    5.827147   7.114112   7.585084   6.014733   7.003644
    38  H    2.460783   3.648102   3.863167   2.419200   3.940146
    39  H    4.732223   5.070484   5.874069   4.886619   5.365536
    40  H    5.786827   5.969328   5.841080   4.832098   4.139268
    41  H    5.080323   4.659407   5.360628   4.961931   4.868106
    42  H    5.452258   4.900784   4.851456   4.616399   3.748967
    43  H    3.841323   2.728837   3.490367   3.871011   4.136791
    44  H    4.066464   2.823944   4.832855   5.323747   6.348139
    45  H    5.622222   4.799546   7.065971   7.378595   8.663990
    46  H    6.002740   5.903721   8.135668   7.961651   9.521313
    47  H    5.058699   5.651366   7.504155   6.819012   8.473845
                   31         32         33         34         35
    31  H    0.000000
    32  H    3.400691   0.000000
    33  H    5.048276   2.453848   0.000000
    34  H    5.299993   2.504150   1.751865   0.000000
    35  H    5.899410   5.094569   3.999640   3.655854   0.000000
    36  H    6.265387   4.208848   3.696127   2.143850   3.040409
    37  H    7.257885   5.481218   4.288812   3.243143   2.321235
    38  H    4.480715   3.422362   4.227851   2.946078   3.693799
    39  H    4.828202   5.115801   5.016600   4.504680   2.128698
    40  H    3.247762   3.935557   3.860683   4.220588   3.034448
    41  H    3.773856   5.538579   6.090467   5.885528   4.130951
    42  H    2.284117   4.866520   5.809667   5.924271   5.042839
    43  H    3.438650   5.592478   7.014563   6.514703   5.922581
    44  H    5.881567   7.518802   8.726562   7.875045   6.766132
    45  H    8.207291   9.518783  10.368847   9.362157   7.659086
    46  H    9.244488   9.795205  10.169201   8.993524   7.006619
    47  H    8.431561   8.205776   8.235672   6.954579   5.131864
                   36         37         38         39         40
    36  H    0.000000
    37  H    1.751684   0.000000
    38  H    2.358503   3.730930   0.000000
    39  H    3.791896   3.794631   3.054451   0.000000
    40  H    4.738803   4.984296   3.893976   2.507820   0.000000
    41  H    5.644319   5.948317   4.125646   2.213190   2.556500
    42  H    6.271592   6.842662   4.554559   3.501983   2.437764
    43  H    6.316684   7.175215   4.126283   3.954962   4.271745
    44  H    7.010343   7.684936   5.054469   4.709550   6.058701
    45  H    8.022606   8.338261   6.567143   5.804104   7.730670
    46  H    7.244842   7.211613   6.494876   5.669936   8.047000
    47  H    5.019245   4.862506   4.866198   4.355081   6.829722
                   41         42         43         44         45
    41  H    0.000000
    42  H    1.748311   0.000000
    43  H    2.471204   2.482692   0.000000
    44  H    3.791537   4.652749   2.470457   0.000000
    45  H    5.422158   6.710571   4.861267   2.481794   0.000000
    46  H    6.199907   7.766564   6.294751   4.308141   2.478131
    47  H    5.700913   7.238568   6.193990   5.003737   4.306516
                   46         47
    46  H    0.000000
    47  H    2.479382   0.000000
 Stoichiometry    C21H22N2O2
 Framework group  C1[X(C21H22N2O2)]
 Deg. of freedom   135
 Full point group                 C1      NOp   1
 Largest Abelian subgroup         C1      NOp   1
 Largest concise Abelian subgroup C1      NOp   1
                         Standard orientation:                         
 ---------------------------------------------------------------------
 Center     Atomic      Atomic             Coordinates (Angstroms)
 Number     Number       Type             X           Y           Z
 ---------------------------------------------------------------------
      1          6           0        0.495819   -1.878198    1.674392
      2          6           0       -0.925329   -2.414691    1.725307
      3          7           0       -1.304964   -2.701547    0.333877
      4          6           0       -2.667190   -2.241323    0.011667
      5          6           0       -2.690969   -0.760823   -0.313568
      6          6           0       -3.407263    0.109090    0.425800
      7          6           0       -3.440485    1.609228    0.365840
      8          8           0       -2.728728    2.192286   -0.711771
      9          6           0       -1.303383    2.137564   -0.700007
     10          6           0       -0.620087    2.900798    0.456710
     11          6           0        0.866639    2.551969    0.544182
     12          8           0        1.728150    3.421533    0.620509
     13          7           0        1.089195    1.182635    0.527191
     14          6           0       -0.029918    0.254919    0.367928
     15          6           0       -0.751048    0.716848   -0.908401
     16          6           0       -1.723983   -0.345407   -1.408113
     17          6           0       -0.843103   -1.539101   -1.824023
     18          6           0       -0.243030   -2.165517   -0.564108
     19          6           0        0.568320   -1.181240    0.309547
     20          6           0        2.004669   -0.855821   -0.022826
     21          6           0        3.014622   -1.715577   -0.428560
     22          6           0        4.296301   -1.192764   -0.617467
     23          6           0        4.556389    0.169226   -0.396107
     24          6           0        3.538213    1.034042    0.012564
     25          6           0        2.273199    0.508349    0.195009
     26          1           0        0.711492   -1.211234    2.516576
     27          1           0        1.204913   -2.715245    1.726068
     28          1           0       -0.983500   -3.321974    2.335149
     29          1           0       -1.576424   -1.665650    2.191685
     30          1           0       -3.352290   -2.493026    0.831328
     31          1           0       -3.045361   -2.803291   -0.851777
     32          1           0       -4.035591   -0.294680    1.219700
     33          1           0       -4.486784    1.909816    0.240930
     34          1           0       -3.112093    2.030796    1.320106
     35          1           0       -1.028135    2.688317   -1.610773
     36          1           0       -1.074811    2.689321    1.429277
     37          1           0       -0.730694    3.979294    0.295280
     38          1           0       -0.678811    0.371620    1.244930
     39          1           0        0.015348    0.834757   -1.693321
     40          1           0       -2.275879    0.006365   -2.287635
     41          1           0       -0.044869   -1.222503   -2.507115
     42          1           0       -1.432291   -2.278856   -2.381535
     43          1           0        0.386845   -3.013551   -0.860112
     44          1           0        2.829975   -2.774153   -0.582690
     45          1           0        5.105730   -1.847866   -0.932300
     46          1           0        5.561242    0.557360   -0.546900
     47          1           0        3.746691    2.086788    0.171144
 ---------------------------------------------------------------------
 Rotational constants (GHZ):           0.3677709           0.2507704           0.1747205
 Standard basis: 6-31+G(d,p) (6D, 7F)
 There are   585 symmetry adapted cartesian basis functions of A   symmetry.
 There are   585 symmetry adapted basis functions of A   symmetry.
   585 basis functions,   954 primitive gaussians,   585 cartesian basis functions
    89 alpha electrons       89 beta electrons
       nuclear repulsion energy      2395.5701292330 Hartrees.
 NAtoms=   47 NActive=   47 NUniq=   47 SFac= 1.00D+00 NAtFMM=   60 NAOKFM=F Big=F
 Integral buffers will be    131072 words long.
 Raffenetti 2 integral format.
 Two-electron integral symmetry is turned on.
 One-electron integrals computed using PRISM.
 NBasis=   585 RedAO= T EigKep=  1.17D-06  NBF=   585
 NBsUse=   582 1.00D-06 EigRej=  6.90D-07 NBFU=   582
 ExpMin= 4.38D-02 ExpMax= 5.48D+03 ExpMxC= 8.25D+02 IAcc=3 IRadAn=         5 AccDes= 0.00D+00
 Harris functional with IExCor=  402 and IRadAn=       5 diagonalized for initial guess.
 HarFok:  IExCor=  402 AccDes= 0.00D+00 IRadAn=         5 IDoV= 1 UseB2=F ITyADJ=14
 ICtDFT=  3500011 ScaDFX=  1.000000  1.000000  1.000000  1.000000
 FoFCou: FMM=F IPFlag=           0 FMFlag=      100000 FMFlg1=           0
         NFxFlg=           0 DoJE=T BraDBF=F KetDBF=T FulRan=T
         wScrn=  0.000000 ICntrl=       500 IOpCl=  0 I1Cent=   200000004 NGrid=           0
         NMat0=    1 NMatS0=      1 NMatT0=    0 NMatD0=    1 NMtDS0=    0 NMtDT0=    0
 Petite list used in FoFCou.
 Requested convergence on RMS density matrix=1.00D-08 within 128 cycles.
 Requested convergence on MAX density matrix=1.00D-06.
 Requested convergence on             energy=1.00D-06.
 No special actions if energy rises.
 SCF Done:  E(RB3LYP) =  -1073.46120118     A.U. after   16 cycles
            NFock= 16  Conv=0.48D-08     -V/T= 2.0091

 **********************************************************************

            Population analysis using the SCF Density.

 **********************************************************************

 Orbital symmetries:
       Occupied  (A) (A) (A) (A) (A) (A) (A) (A) (A) (A) (A) (A)
                 (A) (A) (A) (A) (A) (A) (A) (A) (A) (A) (A) (A)
                 (A) (A) (A) (A) (A) (A) (A) (A) (A) (A) (A) (A)
                 (A) (A) (A) (A) (A) (A) (A) (A) (A) (A) (A) (A)
                 (A) (A) (A) (A) (A) (A) (A) (A) (A) (A) (A) (A)
                 (A) (A) (A) (A) (A) (A) (A) (A) (A) (A) (A) (A)
                 (A) (A) (A) (A) (A) (A) (A) (A) (A) (A) (A) (A)
                 (A) (A) (A) (A) (A)
       Virtual   (A) (A) (A) (A) (A) (A) (A) (A) (A) (A) (A) (A)
                 (A) (A) (A) (A) (A) (A) (A) (A) (A) (A) (A) (A)
                 (A) (A) (A) (A) (A) (A) (A) (A) (A) (A) (A) (A)
                 (A) (A) (A) (A) (A) (A) (A) (A) (A) (A) (A) (A)
                 (A) (A) (A) (A) (A) (A) (A) (A) (A) (A) (A) (A)
                 (A) (A) (A) (A) (A) (A) (A) (A) (A) (A) (A) (A)
                 (A) (A) (A) (A) (A) (A) (A) (A) (A) (A) (A) (A)
                 (A) (A) (A) (A) (A) (A) (A) (A) (A) (A) (A) (A)
                 (A) (A) (A) (A) (A) (A) (A) (A) (A) (A) (A) (A)
                 (A) (A) (A) (A) (A) (A) (A) (A) (A) (A) (A) (A)
                 (A) (A) (A) (A) (A) (A) (A) (A) (A) (A) (A) (A)
                 (A) (A) (A) (A) (A) (A) (A) (A) (A) (A) (A) (A)
                 (A) (A) (A) (A) (A) (A) (A) (A) (A) (A) (A) (A)
                 (A) (A) (A) (A) (A) (A) (A) (A) (A) (A) (A) (A)
                 (A) (A) (A) (A) (A) (A) (A) (A) (A) (A) (A) (A)
                 (A) (A) (A) (A) (A) (A) (A) (A) (A) (A) (A) (A)
                 (A) (A) (A) (A) (A) (A) (A) (A) (A) (A) (A) (A)
                 (A) (A) (A) (A) (A) (A) (A) (A) (A) (A) (A) (A)
                 (A) (A) (A) (A) (A) (A) (A) (A) (A) (A) (A) (A)
                 (A) (A) (A) (A) (A) (A) (A) (A) (A) (A) (A) (A)
                 (A) (A) (A) (A) (A) (A) (A) (A) (A) (A) (A) (A)
                 (A) (A) (A) (A) (A) (A) (A) (A) (A) (A) (A) (A)
                 (A) (A) (A) (A) (A) (A) (A) (A) (A) (A) (A) (A)
                 (A) (A) (A) (A) (A) (A) (A) (A) (A) (A) (A) (A)
                 (A) (A) (A) (A) (A) (A) (A) (A) (A) (A) (A) (A)
                 (A) (A) (A) (A) (A) (A) (A) (A) (A) (A) (A) (A)
                 (A) (A) (A) (A) (A) (A) (A) (A) (A) (A) (A) (A)
                 (A) (A) (A) (A) (A) (A) (A) (A) (A) (A) (A) (A)
                 (A) (A) (A) (A) (A) (A) (A) (A) (A) (A) (A) (A)
                 (A) (A) (A) (A) (A) (A) (A) (A) (A) (A) (A) (A)
                 (A) (A) (A) (A) (A) (A) (A) (A) (A) (A) (A) (A)
                 (A) (A) (A) (A) (A) (A) (A) (A) (A) (A) (A) (A)
                 (A) (A) (A) (A) (A) (A) (A) (A) (A) (A) (A) (A)
                 (A) (A) (A) (A) (A) (A) (A) (A) (A) (A) (A) (A)
                 (A) (A) (A) (A) (A) (A) (A) (A) (A) (A) (A) (A)
                 (A) (A) (A) (A) (A) (A) (A) (A) (A) (A) (A) (A)
                 (A) (A) (A) (A) (A) (A) (A) (A) (A) (A) (A) (A)
                 (A) (A) (A) (A) (A) (A) (A) (A) (A) (A) (A) (A)
                 (A) (A) (A) (A) (A) (A) (A) (A) (A) (A) (A) (A)
                 (A) (A) (A) (A) (A) (A) (A) (A) (A) (A) (A) (A)
                 (A) (A) (A) (A) (A) (A) (A) (A) (A) (A) (A) (A)
                 (A)
 The electronic state is 1-A.
 Alpha  occ. eigenvalues --  -19.16884 -19.13418 -14.38611 -14.33673 -10.30366
 Alpha  occ. eigenvalues --  -10.25651 -10.25073 -10.24235 -10.23683 -10.23037
 Alpha  occ. eigenvalues --  -10.22303 -10.22050 -10.21453 -10.20843 -10.20653
 Alpha  occ. eigenvalues --  -10.20639 -10.20551 -10.20392 -10.20062 -10.19938
 Alpha  occ. eigenvalues --  -10.19848 -10.19815 -10.19648 -10.19574 -10.19277
 Alpha  occ. eigenvalues --   -1.05214  -1.04741  -0.98399  -0.94863  -0.86685
 Alpha  occ. eigenvalues --   -0.84803  -0.83257  -0.81465  -0.78435  -0.75966
 Alpha  occ. eigenvalues --   -0.75855  -0.74519  -0.72948  -0.71298  -0.68204
 Alpha  occ. eigenvalues --   -0.65608  -0.64536  -0.63452  -0.61545  -0.59286
 Alpha  occ. eigenvalues --   -0.58163  -0.56691  -0.55904  -0.53088  -0.52555
 Alpha  occ. eigenvalues --   -0.51920  -0.50854  -0.49708  -0.48058  -0.47993
 Alpha  occ. eigenvalues --   -0.47861  -0.47128  -0.46152  -0.46067  -0.45193
 Alpha  occ. eigenvalues --   -0.44468  -0.43953  -0.43845  -0.42182  -0.41784
 Alpha  occ. eigenvalues --   -0.40838  -0.40567  -0.40284  -0.39783  -0.38811
 Alpha  occ. eigenvalues --   -0.38609  -0.38298  -0.37434  -0.36891  -0.36246
 Alpha  occ. eigenvalues --   -0.35876  -0.34921  -0.34278  -0.34007  -0.33644
 Alpha  occ. eigenvalues --   -0.32968  -0.31427  -0.30094  -0.27637  -0.26055
 Alpha  occ. eigenvalues --   -0.25696  -0.25334  -0.22301  -0.21506
 Alpha virt. eigenvalues --   -0.02635  -0.01958  -0.01374  -0.00829   0.00162
 Alpha virt. eigenvalues --    0.00298   0.00550   0.01747   0.01886   0.02268
 Alpha virt. eigenvalues --    0.02444   0.03001   0.03066   0.03865   0.04027
 Alpha virt. eigenvalues --    0.04633   0.05139   0.05458   0.05572   0.05783
 Alpha virt. eigenvalues --    0.06420   0.06748   0.07072   0.07924   0.08245
 Alpha virt. eigenvalues --    0.08550   0.08627   0.09057   0.09327   0.09998
 Alpha virt. eigenvalues --    0.10066   0.10726   0.11334   0.11658   0.11839
 Alpha virt. eigenvalues --    0.11988   0.12382   0.12558   0.12811   0.13132
 Alpha virt. eigenvalues --    0.13743   0.13902   0.14397   0.14518   0.14896
 Alpha virt. eigenvalues --    0.15120   0.15598   0.15827   0.15993   0.16254
 Alpha virt. eigenvalues --    0.16660   0.16799   0.16977   0.17476   0.17525
 Alpha virt. eigenvalues --    0.17695   0.17910   0.18109   0.18400   0.18769
 Alpha virt. eigenvalues --    0.19005   0.19193   0.19347   0.19610   0.19840
 Alpha virt. eigenvalues --    0.20215   0.20297   0.20568   0.20717   0.20902
 Alpha virt. eigenvalues --    0.21203   0.21285   0.21457   0.21811   0.22140
 Alpha virt. eigenvalues --    0.22389   0.22557   0.22678   0.23012   0.23323
 Alpha virt. eigenvalues --    0.23552   0.23695   0.24044   0.24171   0.24606
 Alpha virt. eigenvalues --    0.25167   0.25324   0.25593   0.25782   0.25998
 Alpha virt. eigenvalues --    0.26202   0.26564   0.27015   0.27279   0.27343
 Alpha virt. eigenvalues --    0.27889   0.28127   0.28581   0.28660   0.28824
 Alpha virt. eigenvalues --    0.29228   0.29423   0.29956   0.30292   0.30358
 Alpha virt. eigenvalues --    0.30751   0.31039   0.31232   0.31484   0.32066
 Alpha virt. eigenvalues --    0.32448   0.32684   0.33293   0.33842   0.34046
 Alpha virt. eigenvalues --    0.34466   0.34876   0.35168   0.35594   0.35726
 Alpha virt. eigenvalues --    0.36002   0.36147   0.36668   0.37181   0.37429
 Alpha virt. eigenvalues --    0.38107   0.38670   0.38953   0.39204   0.39703
 Alpha virt. eigenvalues --    0.40532   0.40765   0.41175   0.41683   0.41811
 Alpha virt. eigenvalues --    0.42999   0.43591   0.43871   0.44487   0.44768
 Alpha virt. eigenvalues --    0.45108   0.45394   0.45948   0.46854   0.47073
 Alpha virt. eigenvalues --    0.47872   0.48410   0.48835   0.50191   0.51079
 Alpha virt. eigenvalues --    0.51281   0.53443   0.54626   0.59767   0.63340
 Alpha virt. eigenvalues --    0.66088   0.66796   0.67517   0.68867   0.69060
 Alpha virt. eigenvalues --    0.69833   0.70232   0.71751   0.71925   0.72381
 Alpha virt. eigenvalues --    0.72856   0.73531   0.73928   0.74080   0.74401
 Alpha virt. eigenvalues --    0.75343   0.75673   0.76305   0.77183   0.77895
 Alpha virt. eigenvalues --    0.78001   0.78248   0.78810   0.79552   0.80534
 Alpha virt. eigenvalues --    0.80547   0.80916   0.81752   0.82276   0.82901
 Alpha virt. eigenvalues --    0.83573   0.84472   0.84757   0.85355   0.86384
 Alpha virt. eigenvalues --    0.86514   0.87255   0.88563   0.88777   0.89898
 Alpha virt. eigenvalues --    0.90796   0.91333   0.91714   0.92429   0.93248
 Alpha virt. eigenvalues --    0.93653   0.94279   0.95265   0.95605   0.96397
 Alpha virt. eigenvalues --    0.96984   0.97628   0.98339   0.99109   0.99671
 Alpha virt. eigenvalues --    1.00291   1.00859   1.01855   1.02652   1.02785
 Alpha virt. eigenvalues --    1.04156   1.04381   1.06231   1.06575   1.07467
 Alpha virt. eigenvalues --    1.08161   1.08459   1.09110   1.10202   1.11207
 Alpha virt. eigenvalues --    1.12327   1.12731   1.13867   1.14514   1.15240
 Alpha virt. eigenvalues --    1.15913   1.16810   1.17027   1.17472   1.18104
 Alpha virt. eigenvalues --    1.19005   1.19607   1.20244   1.21002   1.22455
 Alpha virt. eigenvalues --    1.24183   1.24412   1.24874   1.26386   1.28063
 Alpha virt. eigenvalues --    1.29167   1.30419   1.31283   1.32425   1.33095
 Alpha virt. eigenvalues --    1.33192   1.34146   1.35925   1.36501   1.37604
 Alpha virt. eigenvalues --    1.38286   1.39016   1.39546   1.39882   1.41249
 Alpha virt. eigenvalues --    1.42003   1.42440   1.43436   1.44006   1.46524
 Alpha virt. eigenvalues --    1.47329   1.48814   1.49455   1.50292   1.51498
 Alpha virt. eigenvalues --    1.54474   1.55182   1.56221   1.57300   1.59442
 Alpha virt. eigenvalues --    1.60825   1.61786   1.62247   1.64853   1.66300
 Alpha virt. eigenvalues --    1.66402   1.68723   1.69455   1.70418   1.71051
 Alpha virt. eigenvalues --    1.72012   1.72747   1.73316   1.74185   1.75257
 Alpha virt. eigenvalues --    1.75855   1.77482   1.78566   1.79264   1.80822
 Alpha virt. eigenvalues --    1.81053   1.81927   1.82760   1.83516   1.84413
 Alpha virt. eigenvalues --    1.85073   1.85257   1.85659   1.87545   1.87981
 Alpha virt. eigenvalues --    1.88668   1.89546   1.89705   1.90510   1.92020
 Alpha virt. eigenvalues --    1.92281   1.92862   1.93153   1.94537   1.95232
 Alpha virt. eigenvalues --    1.96693   1.97093   1.98256   1.98561   1.99347
 Alpha virt. eigenvalues --    2.00655   2.00838   2.02179   2.02494   2.03545
 Alpha virt. eigenvalues --    2.04478   2.05134   2.05828   2.06245   2.06657
 Alpha virt. eigenvalues --    2.08125   2.08854   2.08983   2.09928   2.11198
 Alpha virt. eigenvalues --    2.12067   2.12457   2.13928   2.14482   2.14805
 Alpha virt. eigenvalues --    2.16341   2.17508   2.17965   2.18867   2.20955
 Alpha virt. eigenvalues --    2.21824   2.23573   2.24256   2.24796   2.25176
 Alpha virt. eigenvalues --    2.25605   2.27953   2.28409   2.29872   2.30222
 Alpha virt. eigenvalues --    2.31166   2.32799   2.32940   2.33658   2.35807
 Alpha virt. eigenvalues --    2.36690   2.36916   2.38238   2.39291   2.39506
 Alpha virt. eigenvalues --    2.40847   2.42930   2.43268   2.44069   2.44385
 Alpha virt. eigenvalues --    2.45729   2.46418   2.47084   2.48027   2.50047
 Alpha virt. eigenvalues --    2.51005   2.51537   2.52003   2.52682   2.53782
 Alpha virt. eigenvalues --    2.55311   2.56105   2.56826   2.57340   2.58117
 Alpha virt. eigenvalues --    2.58583   2.59132   2.59586   2.60713   2.61009
 Alpha virt. eigenvalues --    2.61678   2.62285   2.63319   2.64219   2.64364
 Alpha virt. eigenvalues --    2.65701   2.67307   2.67968   2.68886   2.69300
 Alpha virt. eigenvalues --    2.70159   2.71142   2.71934   2.72903   2.73492
 Alpha virt. eigenvalues --    2.74509   2.75704   2.76944   2.77395   2.77911
 Alpha virt. eigenvalues --    2.79154   2.80796   2.81233   2.81975   2.82152
 Alpha virt. eigenvalues --    2.84777   2.84953   2.85962   2.86396   2.87223
 Alpha virt. eigenvalues --    2.89048   2.89235   2.89814   2.91227   2.92445
 Alpha virt. eigenvalues --    2.93379   2.93696   2.95230   2.97398   2.98688
 Alpha virt. eigenvalues --    3.00488   3.00776   3.03906   3.06163   3.06957
 Alpha virt. eigenvalues --    3.08847   3.08960   3.10115   3.13910   3.16599
 Alpha virt. eigenvalues --    3.18094   3.20736   3.23517   3.26375   3.27684
 Alpha virt. eigenvalues --    3.29171   3.32717   3.34218   3.35115   3.35397
 Alpha virt. eigenvalues --    3.36374   3.37279   3.38308   3.40828   3.44489
 Alpha virt. eigenvalues --    3.47163   3.47769   3.49479   3.50186   3.51440
 Alpha virt. eigenvalues --    3.52312   3.52622   3.54560   3.55128   3.55784
 Alpha virt. eigenvalues --    3.56728   3.58392   3.86712   4.30925   4.36234
 Alpha virt. eigenvalues --    4.37897   4.40914   4.44682   4.45837   4.48787
 Alpha virt. eigenvalues --    4.49317   4.53075   4.55734   4.56911   4.57806
 Alpha virt. eigenvalues --    4.60497   4.62325   4.64847   4.66677   4.73525
 Alpha virt. eigenvalues --    4.78303   4.84424   4.87120   4.89893   4.93497
 Alpha virt. eigenvalues --    5.01507   5.07046   5.15303
          Condensed to atoms (all electrons):
               1          2          3          4          5          6
     1  C   12.208940  -2.157331   0.105063   0.062379  -0.425794   0.372433
     2  C   -2.157331   6.840150   0.020618  -0.408345   0.735446  -0.293582
     3  N    0.105063   0.020618   7.948915   0.353826   0.605190  -0.631964
     4  C    0.062379  -0.408345   0.353826   7.821572  -1.048290  -1.084963
     5  C   -0.425794   0.735446   0.605190  -1.048290  18.068129  -8.736771
     6  C    0.372433  -0.293582  -0.631964  -1.084963  -8.736771  16.628522
     7  C    0.007793   0.037349   0.049479   0.059521   1.258542  -1.573167
     8  O    0.003723   0.000772   0.005747   0.016147  -0.043832   0.009897
     9  C   -0.233123  -0.023114  -0.213776  -0.173406  -1.176574   0.460321
    10  C   -0.040389   0.025260   0.057899   0.055114  -0.003395  -0.000325
    11  C    0.149764  -0.022010   0.005605   0.043697   0.545273  -0.459129
    12  O   -0.003685   0.001386  -0.000041  -0.000958  -0.002331   0.004048
    13  N    0.282845  -0.013809   0.068144   0.002169   0.153506  -0.144435
    14  C   -0.662832   0.286136   0.595549   0.414499   1.234732  -1.073896
    15  C   -0.329964   0.271486   0.531409   0.214525   4.421399  -3.545562
    16  C    0.015037  -0.263222  -0.541073   0.173353  -7.205922   3.756874
    17  C   -0.687407   0.337834   0.690745  -0.532880   1.583504  -0.613430
    18  C    1.130090  -0.812777  -1.282987  -0.824281  -1.301240   1.740137
    19  C   -3.605516   0.970179  -1.177224  -0.015632  -2.707028   1.422771
    20  C   -1.898582   0.456958   0.181759   0.005083  -0.198089   0.115582
    21  C    0.816909  -0.409103  -0.261543   0.056785  -0.468847   0.202085
    22  C    0.195815  -0.038735  -0.004331  -0.010167  -0.034686   0.025584
    23  C    0.038493  -0.026399  -0.010232   0.006984   0.001954  -0.003818
    24  C    0.349480  -0.079442  -0.055512   0.038108   0.091873  -0.102225
    25  C   -0.389687  -0.011228   0.144794   0.147697   0.469104  -0.429470
    26  H    0.547007  -0.083648   0.025809  -0.005492   0.005201  -0.003187
    27  H    0.501327  -0.090700   0.021959   0.006326  -0.004559  -0.000893
    28  H   -0.158216   0.523660  -0.029265   0.012862   0.007562  -0.023128
    29  H   -0.121526   0.462610  -0.110778  -0.061523  -0.005165   0.054364
    30  H    0.001598   0.009464  -0.061120   0.548599  -0.142462  -0.059159
    31  H   -0.004730   0.008110  -0.046612   0.526113  -0.067551  -0.060094
    32  H   -0.000641   0.004701   0.005674  -0.035091  -0.090280   0.353759
    33  H   -0.000208   0.001124   0.000015   0.005297   0.192173  -0.346935
    34  H   -0.001936   0.000776   0.000361  -0.004328  -0.039990  -0.081243
    35  H    0.003071  -0.000041   0.000435   0.000213   0.035167  -0.018813
    36  H    0.003714  -0.000767   0.000596   0.000895   0.020695  -0.027620
    37  H    0.000399   0.000054   0.000004  -0.000033  -0.002478  -0.001229
    38  H    0.108292  -0.059725   0.004138   0.010764  -0.027351   0.016451
    39  H    0.014782  -0.003963   0.002902   0.009253   0.032654  -0.003158
    40  H    0.003040   0.000064   0.001396  -0.020616   0.121534  -0.068454
    41  H    0.000744  -0.005903   0.016079   0.014364   0.010094  -0.026796
    42  H    0.000837   0.010718   0.023589  -0.087317   0.109672   0.026869
    43  H   -0.092317   0.013723   0.007207   0.077412  -0.047033  -0.019265
    44  H    0.004007   0.008676   0.001980  -0.000300   0.002158   0.000059
    45  H   -0.003408   0.000359   0.000011   0.000002   0.000042  -0.000000
    46  H   -0.000519  -0.000055  -0.000001  -0.000002  -0.000012  -0.000001
    47  H   -0.001365   0.000132   0.000002  -0.000011  -0.000051  -0.000009
               7          8          9         10         11         12
     1  C    0.007793   0.003723  -0.233123  -0.040389   0.149764  -0.003685
     2  C    0.037349   0.000772  -0.023114   0.025260  -0.022010   0.001386
     3  N    0.049479   0.005747  -0.213776   0.057899   0.005605  -0.000041
     4  C    0.059521   0.016147  -0.173406   0.055114   0.043697  -0.000958
     5  C    1.258542  -0.043832  -1.176574  -0.003395   0.545273  -0.002331
     6  C   -1.573167   0.009897   0.460321  -0.000325  -0.459129   0.004048
     7  C    6.428239   0.125379  -1.350033   0.224314   0.247802  -0.001754
     8  O    0.125379   8.179605   0.318157  -0.098269   0.041945  -0.001491
     9  C   -1.350033   0.318157  18.386671  -2.699010  -1.211408   0.072769
    10  C    0.224314  -0.098269  -2.699010   8.016145  -0.720059   0.021710
    11  C    0.247802   0.041945  -1.211408  -0.720059   7.585628   0.433444
    12  O   -0.001754  -0.001491   0.072769   0.021710   0.433444   8.214927
    13  N    0.055643   0.018271  -0.568569  -0.063541   0.475425  -0.056184
    14  C    0.068947   0.014024   1.428441  -0.715128  -0.970843   0.045453
    15  C    1.290553  -0.174158 -11.183418   2.099414   1.676332  -0.056022
    16  C   -1.242377   0.029303   1.491166   0.336115  -1.089580   0.005070
    17  C    0.252993   0.026933  -0.901450   0.143898  -0.030523   0.001886
    18  C   -0.305193   0.001148   0.937724  -0.206794   0.177894  -0.002873
    19  C   -0.524201  -0.044443   2.534768  -0.606518  -1.017791  -0.025753
    20  C   -0.077137  -0.010816   0.901780  -0.167333  -0.738966  -0.066152
    21  C   -0.050938  -0.002147   0.344967   0.046021   0.086022   0.014581
    22  C   -0.008411  -0.000025   0.043697   0.000576  -0.057639   0.005487
    23  C    0.003979  -0.000098  -0.016077  -0.084950   0.007747   0.090212
    24  C    0.047469   0.005163  -0.709745   0.429933   0.590241   0.203927
    25  C    0.100685  -0.011811  -0.063124  -0.854708  -0.287807  -0.408057
    26  H   -0.000049  -0.000009  -0.003378   0.002383   0.007086  -0.000040
    27  H   -0.000270   0.000002  -0.000576   0.000016  -0.000919  -0.000007
    28  H   -0.000125   0.000001  -0.000057   0.000305   0.000026   0.000000
[...]
 0.00005038,-0.00005296,0.00004762,0.00009049,0.00061911,-0.00024376,-0
 .00005036,-0.00021750,0.00004645,0.00034225,-0.00117389,0.00013266,-0.
 00009842,-0.00016969,-0.00006770,-0.00000818,0.00002463,-0.00002426,-0
 .00000861,-0.00005211,-0.00006135,0.00001507,0.00014318,0.00005730,0.0
 0045230,-0.00034403,-0.00038142,-0.00119551,-0.00012397,0.00032561,-0.
 00103425,-0.01305766,0.00070210,-0.00012703,-0.33491287,0.01046788,0.0
 0272271,-0.01137500,-0.00030525,-0.00312223,0.00086623,0.00102311,0.00
 020949,0.00042228,-0.00008301,0.00221496,0.00140581,-0.00035502,-0.000
 07531,0.00005793,0.00002616,-0.00004518,0.00016047,-0.00025654,0.00003
 695,0.00002773,0.00000336,-0.00004702,0.00000225,0.00000735,-0.0000112
 9,0.00000754,0.00000280,-0.00000147,0.00000868,-0.00000618,-0.00000463
 ,0.00000703,-0.00000562,0.00000659,0.00001069,-0.00000548,-0.00000505,
 0.00001794,0.00000081,0.00000360,0.00000233,0.00000418,0.00000649,-0.0
 0000297,0.00000060,0.00004215,0.00000182,0.00001352,0.00007457,-0.0000
 2354,-0.00000241,-0.00000710,-0.00000994,-0.00002831,-0.00001720,0.000
 04194,0.00000675,0.00000475,-0.00004005,0.00002538,-0.00000262,0.00001
 039,0.00001056,-0.00052896,0.00063287,0.00009196,-0.00007046,0.3569883
 1,0.00084453,-0.00016257,0.00019153,-0.00008864,0.00035548,-0.00020765
 ,-0.00005412,-0.00031753,0.00002929,0.00009482,-0.00001910,-0.00001335
 ,-0.00000780,-0.00002352,0.00001369,0.00000316,0.00001449,-0.00002801,
 -0.00000416,-0.00000466,0.00002686,0.00001375,0.00000167,-0.00001971,-
 0.00002016,0.00000492,-0.00001601,0.00001267,-0.00004658,0.00000496,0.
 00002650,-0.00000273,-0.00012646,0.00002758,-0.00001209,0.00003702,0.0
 0026064,-0.00040328,0.00020121,-0.00021078,-0.00032208,0.00000923,0.00
 000468,0.00003489,0.00003673,0.00000197,0.00003281,-0.00005983,-0.0000
 9146,-0.00001291,0.00011532,-0.00021578,0.00037461,0.00019745,-0.00151
 920,-0.00020744,-0.00347419,-0.00109004,-0.00609740,0.00358495,0.00672
 610,0.00981528,-0.03816689,-0.00085869,0.00751249,0.00300133,0.0029045
 6,0.00084476,0.00610757,0.00033222,-0.00002538,-0.00100372,0.00259814,
 -0.00036656,0.00698685,-0.00007850,0.00004247,0.00003225,-0.00000147,0
 .00020563,-0.00032442,0.00007698,0.00003394,-0.00001809,-0.00007153,-0
 .00003231,-0.00000738,0.00000848,0.00000050,-0.00000800,-0.00002295,-0
 .00000682,-0.00001507,0.00000777,-0.00000269,-0.00000598,0.00000081,0.
 00000129,-0.00000152,-0.00000054,-0.00000058,-0.00000381,-0.00000341,0
 .00000791,-0.00000334,-0.00000263,-0.00000120,-0.00000248,0.00001139,-
 0.00000158,0.00000224,0.00001351,0.00002248,-0.00000802,0.00000201,0.0
 0001877,-0.00002482,-0.00001148,0.00000342,-0.00000467,-0.00002813,0.0
 0007441,-0.00009714,-0.00001115,-0.00000513,-0.00003544,-0.00005097,-0
 .00018225,0.00021315,-0.00803941,-0.01121660,0.02726748,-0.00014358,0.
 00002534,-0.00011711,0.00002674,0.00000131,0.00003925,-0.00008106,-0.0
 0011353,0.00000811,0.00004596,0.00000171,0.00003163,-0.00000352,-0.000
 00389,-0.00001488,-0.00000722,-0.00000626,-0.00001209,0.00001659,-0.00
 000241,-0.00000143,-0.00005306,0.00000975,0.00000176,0.00004280,-0.000
 02065,-0.00001655,-0.00001520,0.00002024,0.00001453,0.00001687,-0.0001
 3978,0.00005406,-0.00000521,0.00012264,-0.00005078,-0.00000210,0.00010
 420,-0.00025727,-0.00028342,-0.00023556,0.00018795,-0.00000003,0.00004
 657,0.00005908,0.00001224,0.00001504,-0.00000775,-0.00001284,-0.000033
 45,0.00003799,0.00009025,0.00020093,0.00007495,-0.00015639,0.00104564,
 -0.00003592,-0.00243710,-0.00385633,0.00267725,-0.01724530,0.01542236,
 0.00463933,-0.25268307,0.11987109,0.05454927,0.00379731,-0.00247531,-0
 .00034402,0.00181062,-0.00048272,0.00125818,0.00011095,-0.00083586,-0.
 00016159,0.00000010,0.00000262,0.00001144,0.00002685,-0.00000792,-0.00
 000674,-0.00003320,-0.00002947,0.00000976,-0.00000236,0.00000608,0.000
 00104,-0.00001215,0.00000330,0.00000291,-0.00000836,-0.00000343,-0.000
 01385,0.00000044,-0.00000159,0.00000559,-0.00000761,0.00000063,-0.0000
 0215,0.00000611,0.00000013,-0.00000083,-0.00001144,0.00001548,-0.00000
 912,0.00000250,-0.00001332,-0.00000128,-0.00000640,0.00000732,-0.00000
 506,-0.00007517,0.00013436,-0.00002447,0.00000285,-0.00000376,-0.00000
 131,-0.00001650,-0.00000442,-0.00000658,0.00000917,0.00002083,0.000006
 82,-0.00002842,-0.00001162,-0.00002125,0.00000556,-0.00002467,-0.00000
 475,0.00069997,-0.00020462,-0.00121828,0.26604899,0.00000736,0.0000217
 6,-0.00005318,0.00000227,-0.00001067,-0.00000029,0.00000909,-0.0000178
 6,0.00000302,0.00000222,-0.00000592,-0.00000126,0.00000258,0.00000502,
 0.00000547,0.00000410,-0.00000016,0.00000139,-0.00000945,-0.00001100,0
 .00001272,0.00004184,0.00002372,-0.00000013,-0.00003056,-0.00003664,-0
 .00004039,0.00004093,0.00003843,0.00002363,-0.00021581,-0.00020180,0.0
 0004818,0.00034064,0.00001679,-0.00004189,0.00010293,0.00027522,-0.000
 07422,-0.00018870,-0.00019345,0.00009679,0.00000756,0.00004362,0.00001
 740,0.00000687,-0.00000149,0.00000755,0.00000739,-0.00001201,-0.000001
 91,0.00000823,0.00007865,0.00002357,-0.00046856,0.00060633,0.00000840,
 -0.00303483,-0.00098171,0.00118961,-0.01453179,0.01138253,0.00354959,0
 .11980804,-0.13216475,-0.02920784,0.02796445,-0.01089068,-0.00695836,-
 0.00146372,-0.00555533,0.00062613,-0.00110716,-0.00091782,0.00026369,0
 .00000433,-0.00000572,0.00000807,0.00001168,-0.00000613,0.00001926,-0.
 00000417,-0.00000118,-0.00000093,0.00000294,0.00000164,-0.00000064,0.0
 0000063,0.00000036,-0.00000242,-0.00000164,0.00000117,0.00000097,-0.00
 000002,0.00000149,-0.00000274,0.00000341,0.00000183,-0.00000084,-0.000
 00170,0.00000086,-0.00000008,-0.00000250,0.00000490,0.00000095,0.00000
 730,-0.00000032,-0.00000487,0.00000137,0.00000242,0.,-0.00001134,0.000
 07264,-0.00000948,-0.00000030,-0.00000387,-0.00001034,0.00000369,0.000
 00177,0.00000106,-0.00000105,0.00000098,-0.00000415,-0.00000485,0.0000
 0389,-0.00000422,0.00001013,-0.00002803,-0.00000679,0.00049399,0.00090
 162,-0.00028234,-0.12869878,0.13689741,-0.00004291,-0.00000954,0.00001
 382,0.00000670,-0.00001000,0.00002258,0.00001542,0.00005549,-0.0000283
 5,-0.00000635,-0.00000183,-0.00000478,-0.00000483,-0.00000568,0.000006
 14,0.00000306,0.00000305,-0.00000393,-0.00000859,-0.00000053,0.0000176
 8,0.00002883,0.00000832,-0.00001438,-0.00003039,0.00000231,0.00000612,
 0.00001011,0.00003257,0.00009010,-0.00000979,0.00008575,0.00000280,-0.
 00003825,-0.00003545,-0.00011645,-0.00017552,-0.00011980,-0.00065076,0
 .00011285,0.00010586,-0.00023586,-0.00000247,-0.00006620,-0.00000555,-
 0.00001025,0.00000961,-0.00002342,-0.00001193,-0.00000279,0.00001496,0
 .00004763,-0.00011824,-0.00004622,0.00030774,-0.00020216,0.00060684,0.
 00226904,0.00131194,0.00582618,0.00554976,-0.00435101,0.00084739,0.054
 56594,-0.02905405,-0.04722742,-0.00101497,0.00073980,0.00252325,0.0011
 7156,0.00044433,0.00628992,-0.00011900,0.00026453,-0.00054013,0.000007
 49,-0.00000784,-0.00001170,0.00001244,0.00001377,-0.00001185,0.0000026
 4,0.00000421,-0.00000884,-0.00000083,0.00000093,-0.00000079,0.00000486
 ,-0.00000041,-0.00000332,-0.00000166,-0.00000188,0.00000070,0.00000219
 ,0.00000096,-0.00000375,0.00000267,-0.00000063,-0.00000060,-0.00000297
 ,-0.00000249,-0.00000370,-0.00000225,-0.00000383,-0.00000645,-0.000011
 82,-0.00002108,0.00001854,-0.00000219,0.00000059,0.00000739,-0.0000225
 9,-0.00000178,-0.00000852,-0.00000851,0.00000925,-0.00000826,-0.000001
 42,-0.00000344,-0.00000205,0.00000090,0.00000657,-0.00000962,0.0000028
 4,0.00000095,0.00000246,-0.00003123,-0.00000035,0.00001224,-0.00121584
 ,-0.00008844,-0.00353030,-0.06025052,0.03116477,0.03953375,0.00002296,
 0.00000661,-0.00001550,-0.00000762,0.00002366,-0.00001455,-0.00004090,
 -0.00005860,0.00001984,0.00002152,0.00001174,0.00001319,-0.00000581,-0
 .00000242,-0.00002106,-0.00000815,-0.00000860,-0.00001065,0.00002002,0
 .00000441,-0.00001109,-0.00007248,-0.00000844,-0.00000130,0.00007290,0
 .00000382,0.00004183,-0.00001867,0.00004814,-0.00002321,0.00005503,-0.
 00078972,0.00020481,0.00017711,0.00039685,-0.00009473,-0.00096141,-0.0
 0078433,0.00015084,-0.00013201,0.00033114,0.00006193,-0.00002985,-0.00
 005091,0.00004509,-0.00001337,0.00002225,-0.00002394,-0.00001107,0.000
 00211,0.00001568,0.00005083,0.00003042,0.00002450,-0.00002049,-0.00000
 541,-0.00022488,0.00006583,0.00075567,-0.00021532,0.00195152,0.0003444
 1,0.00122400,0.00335790,0.00206104,-0.00007594,-0.25710784,-0.11441675
 ,0.05993989,-0.01750826,-0.01405618,0.00572979,-0.00187077,0.00374349,
 0.00224916,-0.00000553,0.00000539,-0.00000823,-0.00000073,-0.00000346,
 0.00000294,-0.00000113,-0.00000998,0.00000530,0.00000033,0.00000085,-0
 .00000252,-0.00000537,0.00000044,0.00000467,-0.00000156,-0.00000301,-0
 .00000734,-0.00000019,-0.00000183,0.00000655,-0.00000851,-0.00000137,-
 0.00000125,0.00000671,-0.00000122,-0.00000100,-0.00000850,0.00000603,-
 0.00001062,-0.00000251,-0.00000553,-0.00000536,-0.00003290,0.00000640,
 -0.00000861,-0.00007927,-0.00006785,-0.00001119,0.00000533,0.00000223,
 0.00001134,-0.00001789,-0.00001556,-0.00000744,0.00000408,0.00000645,0
 .00000565,-0.00000704,-0.00001115,-0.00000518,-0.00001687,-0.00001616,
 -0.00000324,0.00003982,0.00016879,0.00001984,0.00046654,-0.00035739,-0
 .00115543,0.27092211,0.00002024,-0.00001371,0.00000317,-0.00000315,0.0
 0000488,-0.00001844,-0.00006044,-0.00001014,0.00002507,0.00001831,0.00
 000069,0.00001745,0.00000209,-0.00000141,-0.00000042,-0.00000356,0.000
 00237,0.00000146,0.00000281,-0.00000275,0.00000296,-0.00000868,0.00000
 436,-0.00000213,-0.00000069,0.00000120,-0.00000480,-0.00001484,-0.0000
 3320,0.00001311,0.00000331,0.00017990,-0.00003776,-0.00010773,-0.00008
 171,0.00001181,0.00066201,0.00075709,-0.00010223,0.00013801,-0.0001723
 1,-0.00004959,0.00000067,0.00002567,-0.00000874,0.00000615,-0.00001229
 ,-0.00000475,-0.00000633,0.00001832,0.00001657,0.00009510,-0.00004872,
 -0.00003863,-0.00003709,0.00007109,-0.00002843,0.00098805,-0.00080191,
 -0.00022697,0.00111263,-0.00565228,-0.00002054,-0.02809031,-0.00989938
 ,0.00754290,-0.11442573,-0.12471337,0.03162342,0.01523746,0.01146353,-
 0.00417861,0.00340457,-0.00127118,-0.00073478,-0.00000907,0.00000770,0
 .00000840,-0.00000357,0.00002037,-0.00004006,-0.00000015,-0.00000236,0
 .00000390,-0.00001236,0.00000251,0.00000434,-0.00000697,0.00000259,0.0
 0000100,-0.00000115,0.00000046,-0.00000444,-0.00000060,0.00000004,0.00
 000126,-0.00000162,0.00000140,-0.00000073,0.00000030,0.00000315,-0.000
 00004,-0.00000007,0.00000195,-0.00000108,-0.00000613,0.00000147,-0.000
 00051,0.00001256,-0.00000014,0.00000246,0.00003700,0.00006372,0.000005
 25,0.00000081,-0.00000361,0.00000123,-0.00000552,0.00000940,0.00000087
 ,0.00000594,-0.00000309,0.00001001,-0.00000524,-0.00000110,-0.00000145
 ,-0.00001507,0.00007737,0.00001668,-0.00136685,-0.00068920,0.00040376,
 0.00031765,0.00102318,-0.00018258,0.12262721,0.12889398,0.00008214,0.0
 0006151,0.00001069,-0.00002094,0.00005243,-0.00004455,-0.00000278,-0.0
 0005319,0.00002571,0.00001130,-0.00000443,-0.00000438,0.00000247,0.000
 00225,0.00000524,0.00000341,0.00000569,-0.00000045,-0.00000825,-0.0000
 0247,0.00001461,0.00002516,0.00000507,-0.00001166,-0.00002044,-0.00000
 052,0.00000235,0.00000044,-0.00002038,0.00000430,-0.00001837,0.0001749
 8,-0.00000701,-0.00006053,-0.00007024,0.00000259,0.00025793,0.00023155
 ,0.00035058,0.00002852,-0.00009058,-0.00021224,-0.00001717,-0.00002464
 ,-0.00000424,-0.00000742,0.00000320,-0.00001731,-0.00000079,0.00001775
 ,0.00000571,0.00001041,-0.00000046,0.00001658,-0.00010093,-0.00002428,
 -0.00063544,-0.00024860,-0.00034871,-0.00078296,0.00134080,0.00013426,
 0.00635744,0.00041685,-0.00035453,0.00290785,0.06006253,0.03147512,-0.
 05259422,0.00479846,0.00374280,0.00189545,0.00234815,-0.00066040,0.006
 46170,0.00000308,-0.00000825,0.00001586,-0.00001068,0.00002287,-0.0000
 1396,0.00001515,0.00002019,-0.00000323,-0.00000667,-0.00000612,-0.0000
 0023,0.00000349,0.00000031,-0.00000260,-0.00000114,0.,0.00000025,0.000
 00122,0.00000095,-0.00000305,0.00000292,0.00000055,0.,-0.00000254,-0.0
 0000047,-0.00000261,-0.00000245,0.00000108,-0.00000291,-0.00000098,0.0
 0000383,-0.00000108,0.00000752,-0.00000152,0.00000290,0.00004494,0.000
 03857,0.00000142,-0.00001040,0.00000699,-0.00000237,-0.00000383,-0.000
 00073,-0.00000102,-0.00000131,-0.00000054,-0.00000444,0.00000098,0.000
 00106,0.00000366,-0.00001994,-0.00002146,-0.00000279,0.00001717,-0.000
 02794,0.00018924,-0.00115875,-0.00000724,-0.00367827,-0.06656346,-0.03
 407370,0.04354692,-0.00011617,-0.00000701,-0.00006917,-0.00000837,-0.0
 0003792,0.00000875,-0.00018519,-0.00013584,0.00002705,0.00005935,-0.00
 006487,0.00004804,0.00000146,0.00000836,0.00000498,0.00001314,-0.00000
 022,0.00000589,-0.00005185,-0.00008631,0.00008818,0.00023225,0.0001889
 5,0.00000527,-0.00009208,-0.00030041,-0.00020573,0.00032602,0.00057873
 ,0.00010519,-0.00327020,-0.00513030,0.00134656,0.00171940,0.00312309,-
 0.00069497,0.00011842,0.00297307,-0.00165721,-0.00008644,-0.00042287,0
 .00002113,0.00003593,0.00010210,0.00001826,0.00000567,-0.00002619,0.00
 001016,0.00002720,-0.00003151,0.00001591,-0.00017867,0.00021917,0.0002
 4374,0.00024047,-0.00133100,-0.00028239,-0.00398793,-0.00128878,0.0027
 9988,-0.00114403,-0.00006813,0.00009318,-0.00360815,0.00212802,0.00267
 733,0.00490485,0.02576073,-0.00127597,-0.05592143,-0.00036388,0.005723
 85,0.00596047,-0.02851610,0.00013137,0.00001303,-0.00000894,0.00003059
 ,-0.00001238,0.00002678,-0.00001137,-0.00002083,-0.00000508,0.00000406
 ,-0.00002937,0.00001016,0.00001659,-0.00001688,0.00000631,-0.00001152,
 -0.00001410,0.00000947,-0.00000634,-0.00000001,0.00001144,-0.00001062,
 0.00001489,0.00001677,-0.00000728,-0.00000850,0.00001975,-0.00000032,-
 0.00001545,0.00002194,0.00001064,0.00006235,0.00000612,-0.00001989,-0.
 00006408,0.00005351,0.00000444,0.00000915,0.00011823,0.00001217,0.0000
 1558,-0.00002186,-0.00000176,-0.00000199,0.00001547,0.00000316,0.00000
 269,-0.00000103,0.00000391,-0.00002553,0.00001799,-0.00002061,0.000005
 71,0.00003033,0.00000489,0.00006679,-0.00004580,-0.00029083,0.00009132
 ,0.00123835,0.00005782,0.00075615,-0.00049995,-0.00119664,0.05417736,-
 0.00007017,-0.00001761,-0.00004446,-0.00001198,-0.00001048,0.00000679,
 -0.00005477,-0.00005745,0.00001215,0.00002000,-0.00001408,0.00001671,-
 0.00000376,0.00000103,-0.00000012,0.00000041,-0.00000005,-0.00000450,-
 0.00000136,-0.00000214,0.00001400,0.00002552,0.00001558,-0.00000152,-0
 .00000071,-0.00000553,-0.00000762,0.00006512,0.00006246,0.00016819,-0.
 00043409,0.00102750,-0.00007506,0.00281397,-0.00277718,-0.00025965,0.0
 0083001,-0.00037304,-0.00038020,-0.00006437,-0.00024699,0.00005759,-0.
 00000679,0.00002986,0.00004333,0.00001229,-0.00000306,-0.00000571,-0.0
 0000489,-0.00001693,0.00001415,-0.00006366,0.00009468,0.00013452,0.000
 20137,-0.00049725,-0.00017483,-0.00204550,0.00095909,0.00086957,-0.000
 23418,0.00062800,0.00001322,0.00232222,0.00098156,-0.00036431,-0.00161
 429,-0.00823870,0.00088858,-0.00466362,-0.35303274,0.00749910,0.001475
 05,-0.01030591,0.00008736,-0.00000447,0.00000332,0.00001638,0.00000345
 ,-0.00000778,0.00000174,-0.00000791,-0.00000592,0.00000321,-0.00000420
 ,0.00000033,0.00000423,-0.00000697,0.00000158,-0.00000316,-0.00000354,
 -0.00000020,-0.00000245,-0.00000008,-0.00000014,-0.00000077,0.00000026
 ,0.00000102,-0.00000234,0.00000035,-0.00000007,-0.00000335,-0.00000573
 ,0.00000627,-0.00000585,-0.00003493,-0.00000850,-0.00001388,-0.0000099
 6,-0.00001335,-0.00000211,-0.00002032,0.00001352,-0.00000038,0.0000027
 1,-0.00000775,-0.00001161,-0.00000346,0.00000183,-0.00000124,0.0000011
 2,0.00000194,-0.00000502,-0.00000626,0.00000125,-0.00000942,0.00000767
 ,-0.00000858,-0.00000345,0.00001081,-0.00005501,-0.00005064,-0.0001858
 4,-0.00036168,0.00002645,0.00006631,0.00077548,-0.00020019,0.00170915,
 0.37146182,0.00012400,0.00006068,0.00010660,-0.00001843,0.00003721,-0.
 00002620,0.00000917,-0.00003558,-0.00000786,0.00002080,0.00000344,-0.0
 0001022,-0.00000343,0.00000386,0.00000821,-0.00000157,0.00000385,-0.00
 001415,-0.00001209,-0.00000392,0.00004494,0.00006422,0.00001744,-0.000
 02199,0.00007000,-0.00000222,0.00004460,-0.00013421,0.00022181,0.00057
 178,0.00020292,0.00035254,-0.00002725,-0.00056919,-0.00009950,-0.00109
 245,-0.00116984,-0.00074660,-0.00314239,0.00005171,0.00027178,-0.00027
 759,-0.00009677,-0.00015061,0.00004638,-0.00000530,0.00001529,-0.00004
 708,-0.00001407,-0.00002096,0.00000871,0.00003981,0.00010957,0.0000028
 3,-0.00008596,0.00009461,-0.00018423,0.00246700,0.00062666,0.00594758,
 0.00013878,0.00010378,-0.00078533,0.00288265,-0.00046854,0.00640723,-0
 .00074269,-0.00680253,0.00296373,0.00570091,0.00726398,-0.03840012,0.0
 0046619,0.00772725,0.00414772,0.00001247,-0.00001227,-0.00002332,-0.00
 003363,0.00000046,0.00001760,0.00001314,0.00000771,-0.00000162,0.00000
 071,-0.00000017,0.00000353,0.00000459,0.00000089,-0.00000161,-0.000004
 34,-0.00000098,-0.00000164,0.00000233,0.00000341,-0.00000275,0.0000031
 4,0.00000074,-0.00000502,0.00000081,-0.00000206,-0.00001357,-0.0000219
 5,-0.00000154,-0.00002370,-0.00011038,-0.00000444,-0.00001178,-0.00001
 329,-0.00000532,0.00002069,0.00002023,0.00005263,-0.00001085,0.0000006
 1,-0.00001427,-0.00002740,-0.00000902,-0.00001322,-0.00000341,0.000001
 25,0.00000009,-0.00001046,0.00000086,0.00000100,-0.00000671,0.00000065
 ,-0.00001774,-0.00001727,-0.00031204,-0.00002346,-0.00104205,0.0000734
 2,-0.00035565,0.00034241,-0.00125382,0.00004434,-0.00378802,-0.0077603
 8,-0.00824343,0.02834347\\0.00000092,0.00000488,0.00000005,0.00000175,
 -0.00000437,-0.00000133,-0.00000067,-0.00000154,0.00000056,0.00001063,
 0.00000221,-0.00000042,-0.00000604,-0.00000670,-0.00000042,0.00000368,
 -0.00000076,-0.00000140,0.00000297,-0.00000328,-0.00000343,0.00000187,
 0.00000411,0.00000231,-0.00000807,-0.00000898,-0.00001115,-0.00000093,
 -0.00000051,0.00000558,-0.00000265,0.00001514,-0.00001319,-0.00000211,
 -0.00000868,0.00000379,-0.00000392,-0.00000057,0.00001175,-0.00000758,
 -0.00000057,0.00000378,-0.00000042,-0.00000426,-0.00000144,0.00000044,
 0.00000057,0.00000038,-0.00000289,-0.00000099,-0.00000050,0.00000081,0
 .00000047,0.00000658,0.00000179,-0.00000462,-0.00000045,0.00000222,0.0
 0001665,-0.00000246,-0.00000075,-0.00000437,0.00000148,0.00000209,0.00
 000077,0.00000162,0.00000194,0.00000285,-0.00000024,-0.00000626,-0.000
 00059,0.00000130,0.00000778,-0.00000677,-0.00000360,-0.00000105,-0.000
 00062,0.00000036,0.00000034,0.00000133,0.00000081,-0.00000046,0.000000
 64,0.00000121,-0.00000018,0.00000203,0.00000070,-0.00000019,-0.0000002
 3,-0.00000100,-0.00000014,-0.00000150,-0.00000157,0.00000108,0.0000011
 7,0.00000063,-0.00000114,-0.00000376,-0.00000472,-0.00000141,0.0000005
 9,-0.00000091,0.00000007,0.00000275,0.00000325,-0.00000070,0.00000021,
 -0.00000001,-0.00000434,-0.00000039,-0.00000269,0.00000174,0.00000034,
 -0.00000282,-0.00000135,0.00000014,0.00000170,0.00000192,-0.00000146,-
 0.00000161,0.00000264,-0.00000051,0.00000157,0.00000103,-0.00000038,0.
 00000168,0.00000123,0.00000024,0.00000134,0.00000061,0.00000259,0.0000
 0155,0.00000152,0.00000398,0.00000105,-0.00000033,0.00000186,0.0000008
 8,0.00000253,0.00000089,-0.00000050\\\@
 The archive entry for this job was punched.


 IF I AM NOT FOR MYSELF, WHO WILL BE?
 BUT IF I AM ONLY FOR MYSELF, WHAT AM I?
 THOUGH A SEEKER SINCE MY BIRTH,
 HERE IS ALL I'VE LEARNED ON EARTH,
 THIS IS THE GIST OF WHAT I KNOW:
 GIVE ADVICE AND BUY A FOE.

 PRESSED FOR RULES AND VERITIES,
 ALL I RECOLLECT ARE THESE:
 FEED A COLD TO STARVE A FEVER,
 ARGUE WITH NO TRUE-BELIEVER.
 THINK-TOO-LONG IS NEVER-ACT,
 SCRATCH A MYTH AND FIND A FACT.

 STITCH IN TIME SAVES TWENTY STITCHES,
 GIVE THE RICH TO PLEASE THEM, RICHES.
 GIVE TO LOVE YOU HEARTH AND HALL,
 BUT DO NOT GIVE ADVICE AT ALL.

                                  -- HILLEL
 Job cpu time:       0 days  8 hours 19 minutes 20.4 seconds.
 Elapsed time:       0 days  0 hours 50 minutes 53.4 seconds.
 File lengths (MBytes):  RWF=   1517 Int=      0 D2E=      0 Chk=     30 Scr=      1
 Normal termination of Gaussian 16 at Tue Sep  6 14:58:23 2022.
