      -----------------------------------------------------------      
     |                   =====================                   |     
     |                           x T B                           |     
     |                   =====================                   |     
     |                         S. Grimme                         |     
     |          Mulliken Center for Theoretical Chemistry        |     
     |                    University of Bonn                     |     
      -----------------------------------------------------------      

   * xtb version 6.3.3 (7355c4f) compiled by 'conda@14e9545d6667' on 2020-09-17

   xtb is free software: you can redistribute it and/or modify it under
   the terms of the GNU Lesser General Public License as published by
   the Free Software Foundation, either version 3 of the License, or
   (at your option) any later version.
   
   xtb is distributed in the hope that it will be useful,
   but WITHOUT ANY WARRANTY; without even the implied warranty of
   MERCHANTABILITY or FITNESS FOR A PARTICULAR PURPOSE.  See the
   GNU Lesser General Public License for more details.
   
   Cite this work as:
   * C. Bannwarth, E. Caldeweyher, S. Ehlert, A. Hansen, P. Pracht,
     J. Seibert, S. Spicher, S. Grimme, WIREs Comput. Mol. Sci., 2020,
     e01493. DOI: 10.1002/wcms.1493
   
   for GFN2-xTB:
   * S. Grimme, C. Bannwarth, P. Shushkov, J. Chem. Theory Comput., 2017,
     13, 1989-2009. DOI: 10.1021/acs.jctc.7b00118
   for GFN1-xTB:
   * C. Bannwarth, S. Ehlert and S. Grimme., J. Chem. Theory Comput., 2019,
     15, 1652-1671. DOI: 10.1021/acs.jctc.8b01176
   for GFN0-xTB:
   * P. Pracht, E. Caldeweyher, S. Ehlert, S. Grimme, ChemRxiv, 2019, preprint.
     DOI: 10.26434/chemrxiv.8326202.v1
   for GFN-FF:
   * S. Spicher and S. Grimme, Angew. Chem. Int. Ed., 2020, 59, 15665-15673.
     DOI: 10.1002/anie.202004239
   
   for DFT-D4:
   * E. Caldeweyher, C. Bannwarth and S. Grimme, J. Chem. Phys., 2017,
     147, 034112. DOI: 10.1063/1.4993215
   * E. Caldeweyher, S. Ehlert, A. Hansen, H. Neugebauer, S. Spicher,
     C. Bannwarth and S. Grimme, J. Chem. Phys., 2019, 150, 154122.
     DOI: 10.1063/1.5090222
   * E. Caldeweyher, J.-M. Mewes, S. Ehlert and S. Grimme, Phys. Chem. Chem. Phys.
     2020, 22, 8499-8512. DOI: 10.1039/D0CP00502A
   
   for sTDA-xTB:
   * S. Grimme and C. Bannwarth, J. Chem. Phys., 2016, 145, 054103.
     DOI: 10.1063/1.4959605
   
   in the mass-spec context:
   * V. Asgeirsson, C. Bauer and S. Grimme, Chem. Sci., 2017, 8, 4879.
     DOI: 10.1039/c7sc00601b
   * J. Koopman and S. Grimme, ACS Omega 2019, 4, 12, 15120-15133.
     DOI: 10.1021/acsomega.9b02011
   
   for metadynamics refer to:
   * S. Grimme, J. Chem. Theory Comput., 2019, 155, 2847-2862
     DOI: 10.1021/acs.jctc.9b00143
   
   with help from (in alphabetical order)
   C. Bannwarth, F. Bohle, G. Brandenburg, E. Caldeweyher, M. Checinski,
   S. Dohm, S. Ehlert, S. Ehrlich, F. März, H. Neugebauer, J. Pisarek,
   P. Pracht, P. Shushkov, and S. Spicher.
   
 * started run on 2022/09/06 at 17:42:46.261     

           -------------------------------------------------
          |                Calculation Setup                |
           -------------------------------------------------

          program call               : xtb /home/svss/Project-DBcg-Debug/aqme2_20220329/20220906-example-end-to-end/End-to-end_Workflows/End-to-end workflow 2, SN2 PES/AQME inputs/CSEARCH/crest_xyz/TS1_crest/TS1_crest_xtb1.xyz --opt --input constrain2.inp -c 0 --uhf 0 -P 8
          hostname                   : fireball.chem.colostate.edu
          coordinate file            : /home/svss/Project-DBcg-Debug/aqme2_20220329/20220906-example-end-to-end/End-to-end_Workflows/End-to-end workflow 2, SN2 PES/AQME inputs/CSEARCH/crest_xyz/TS1_crest/TS1_crest_xtb1.xyz
          omp threads                :                     8
          number of atoms            :                    18
          number of electrons        :                    42
          charge                     :                     0
          spin                       :                   0.0
          first test random number   :      0.77909132601729

   ID    Z sym.   atoms
    1    6 C      1-8
    2    1 H      9-18
constraining bond 4 6 to    2.3500000 Å, actual value:    5.1852550 Å
constraining bond 1 7 to    2.3500000 Å, actual value:    4.9570063 Å

molecular fragmentation (1/2 indicates fragments):
111112221111112222
# atoms in fragment 1/2:    11     7
 fragment masses (1/2) :       66.10       40.06
CMA distance (Bohr)    :   4.852
constraining FC (au)   :  0.5000
########################################################################
[WARNING] Please study the warnings concerning your input carefully
-1- prog_main_parseArguments: Process number higher than OMP_NUM_THREADS, I hope you know what you are doing.
########################################################################

           -------------------------------------------------
          |                 G F N 2 - x T B                 |
           -------------------------------------------------

        Reference                      10.1021/acs.jctc.8b01176
      * Hamiltonian:
        H0-scaling (s, p, d)           1.850000    2.230000    2.230000
        zeta-weighting                 0.500000
      * Dispersion:
        s8                             2.700000
        a1                             0.520000
        a2                             5.000000
        s9                             5.000000
      * Repulsion:
        kExp                           1.500000    1.000000
        rExp                           1.000000
      * Coulomb:
        alpha                          2.000000
        third order                    shell-resolved
        anisotropic                    true
        a3                             3.000000
        a5                             4.000000
        cn-shift                       1.200000
        cn-exp                         4.000000
        max-rad                        5.000000

q/qsh data taken from xtbrestart
CAMM data taken from xtbrestart

          ...................................................
          :                      SETUP                      :
          :.................................................:
          :  # basis functions                  42          :
          :  # atomic orbitals                  42          :
          :  # shells                           26          :
          :  # electrons                        42          :
          :  max. iterations                   250          :
          :  Hamiltonian                  GFN2-xTB          :
          :  restarted?                       true          :
          :  GBSA solvation                  false          :
          :  PC potential                    false          :
          :  electronic temp.          300.0000000     K    :
          :  accuracy                    1.0000000          :
          :  -> integral cutoff          0.2500000E+02      :
          :  -> integral neglect         0.1000000E-07      :
          :  -> SCF convergence          0.1000000E-05 Eh   :
          :  -> wf. convergence          0.1000000E-03 e    :
          :  Broyden damping             0.4000000          :
          ...................................................

 iter      E             dE          RMSdq      gap      omega  full diag
   1    -22.4486857 -0.224487E+02  0.103E-05    3.62       0.0  T
   2    -22.4486857  0.316192E-12  0.101E-05    3.62    2343.9  T
   3    -22.4486857 -0.181544E-11  0.273E-06    3.62    8631.6  T

   *** convergence criteria satisfied after 3 iterations ***

         #    Occupation            Energy/Eh            Energy/eV
      -------------------------------------------------------------
         1        2.0000           -0.6437031             -17.5161
       ...           ...                  ...                  ...
        15        2.0000           -0.4430759             -12.0567
        16        2.0000           -0.4376963             -11.9103
        17        2.0000           -0.4252626             -11.5720
        18        2.0000           -0.4191667             -11.4061
        19        2.0000           -0.4133450             -11.2477
        20        2.0000           -0.3806754             -10.3587
        21        2.0000           -0.3575270              -9.7288 (HOMO)
        22                         -0.2244024              -6.1063 (LUMO)
        23                         -0.2178212              -5.9272
        24                         -0.1328166              -3.6141
        25                          0.0146402               0.3984
        26                          0.0818000               2.2259
       ...                                ...                  ...
        42                          0.7157381              19.4762
      -------------------------------------------------------------
                  HL-Gap            0.1331246 Eh            3.6225 eV
             Fermi-level           -0.2909647 Eh           -7.9176 eV

 SCC (total)                   0 d,  0 h,  0 min,  0.075 sec
 SCC setup                      ...        0 min,  0.010 sec ( 13.208%)
 Dispersion                     ...        0 min,  0.000 sec (  0.303%)
 classical contributions        ...        0 min,  0.000 sec (  0.136%)
 integral evaluation            ...        0 min,  0.011 sec ( 14.122%)
 iterations                     ...        0 min,  0.038 sec ( 50.823%)
 molecular gradient             ...        0 min,  0.015 sec ( 20.459%)
 printout                       ...        0 min,  0.000 sec (  0.452%)

         :::::::::::::::::::::::::::::::::::::::::::::::::::::
         ::                     SUMMARY                     ::
         :::::::::::::::::::::::::::::::::::::::::::::::::::::
         :: total energy             -22.046980725958 Eh    ::
         :: gradient norm              0.133026852356 Eh/a0 ::
         :: HOMO-LUMO gap              3.622505638795 eV    ::
         ::.................................................::
         :: SCC energy               -22.448685707088 Eh    ::
         :: -> isotropic ES            0.002432861433 Eh    ::
         :: -> anisotropic ES          0.005143073893 Eh    ::
         :: -> anisotropic XC          0.017532633786 Eh    ::
         :: -> dispersion             -0.015287398358 Eh    ::
         :: repulsion energy           0.401598132406 Eh    ::
         :: add. restraining           0.000054811149 Eh    ::
         :: total charge              -0.000000000000 e     ::
         :::::::::::::::::::::::::::::::::::::::::::::::::::::

      ----------------------------------------------------------- 
     |                   =====================                   |
     |                        A N C O P T                        |
     |                   =====================                   |
     |               Approximate Normal Coordinate               |
     |                Rational Function Optimizer                |
      ----------------------------------------------------------- 

          ...................................................
          :                      SETUP                      :
          :.................................................:
          :   optimization level            normal          :
          :   max. optcycles                   200          :
          :   ANC micro-cycles                  20          :
          :   degrees of freedom                48          :
          :.................................................:
          :   RF solver                   davidson          :
          :   write xtbopt.log                true          :
          :   linear?                        false          :
          :   energy convergence         0.5000000E-05 Eh   :
          :   grad. convergence          0.1000000E-02 Eh/α :
          :   maximium RF displ.         1.0000000          :
          :   Hlow (freq-cutoff)         0.1000000E-01      :
          :   Hmax (freq-cutoff)         5.0000000          :
          :   S6 in model hess.         20.0000000          :
          ...................................................

generating ANC from model Hessian ...
Using Lindh-Hessian (1995)
 Shifting diagonal of input Hessian by    1.0576496512947739E-002
 Lowest  eigenvalues of input Hessian
    0.010000    0.000000    0.000000    0.000000    0.000000    0.000000
    0.000000    0.010900    0.011771    0.012837    0.023920    0.025571
    0.034944    0.037812    0.052680    0.058979    0.063788    0.069039
 Highest eigenvalues
    1.641896    1.860990    1.923497    1.939003    2.295797    2.425690


........................................................................
.............................. CYCLE    1 ..............................
........................................................................
   1    -22.4486857 -0.224487E+02  0.197E-06    3.62       0.0  T
   2    -22.4486857  0.142109E-13  0.140E-06    3.62   16881.2  T
   3    -22.4486857 -0.603961E-13  0.826E-07    3.62   28542.2  T
     SCC iter.                  ...        0 min,  0.065 sec
     gradient                   ...        0 min,  0.018 sec
 * total energy  :   -22.0469807 Eh     change       -0.9592327E-13 Eh
   gradient norm :     0.1330269 Eh/α   predicted     0.0000000E+00 (-100.00%)
   displ. norm   :     0.1790758 α      lambda       -0.1579249E-01
   maximum displ.:     0.1105914 α      in ANC's #15, #31, #40, ...

........................................................................
.............................. CYCLE    2 ..............................
........................................................................
   1    -22.4611704 -0.224612E+02  0.163E-01    3.86       0.0  T
   2    -22.4613395 -0.169165E-03  0.107E-01    3.90       1.0  T
   3    -22.4613680 -0.284751E-04  0.564E-02    3.88       1.0  T
   4    -22.4613688 -0.846062E-06  0.792E-03    3.89       3.0  T
   5    -22.4613692 -0.394039E-06  0.327E-03    3.88       7.2  T
   6    -22.4613693 -0.111175E-06  0.165E-03    3.88      14.3  T
   7    -22.4613694 -0.264747E-07  0.626E-04    3.88      37.7  T
   8    -22.4613694 -0.688299E-09  0.102E-04    3.88     230.9  T
     SCC iter.                  ...        0 min,  0.239 sec
     gradient                   ...        0 min,  0.005 sec
 * total energy  :   -22.0576244 Eh     change       -0.1064364E-01 Eh
   gradient norm :     0.0511973 Eh/α   predicted    -0.8149461E-02 ( -23.43%)
   displ. norm   :     0.1189469 α      lambda       -0.3374716E-02
   maximum displ.:     0.0616387 α      in ANC's #1, #3, #40, ...

........................................................................
.............................. CYCLE    3 ..............................
........................................................................
   1    -22.4702401 -0.224702E+02  0.114E-01    3.92       0.0  T
   2    -22.4703111 -0.710207E-04  0.573E-02    3.94       1.0  T
   3    -22.4703230 -0.119079E-04  0.332E-02    3.93       1.0  T
   4    -22.4703240 -0.101768E-05  0.624E-03    3.93       3.8  T
   5    -22.4703246 -0.604231E-06  0.239E-03    3.93       9.9  T
   6    -22.4703247 -0.685463E-07  0.748E-04    3.93      31.5  T
   7    -22.4703247 -0.159770E-08  0.342E-04    3.93      68.9  T
     SCC iter.                  ...        0 min,  0.195 sec
     gradient                   ...        0 min,  0.012 sec
 * total energy  :   -22.0593352 Eh     change       -0.1710852E-02 Eh
   gradient norm :     0.0127881 Eh/α   predicted    -0.1711232E-02 (   0.02%)
   displ. norm   :     0.0516958 α      lambda       -0.2545210E-03
   maximum displ.:     0.0310227 α      in ANC's #15, #1, #10, ...

........................................................................
.............................. CYCLE    4 ..............................
........................................................................
   1    -22.4689335 -0.224689E+02  0.608E-02    3.93       0.0  T
   2    -22.4689351 -0.162302E-05  0.358E-02    3.92       1.0  T
   3    -22.4689347  0.394191E-06  0.709E-03    3.92       3.3  T
   4    -22.4689351 -0.456818E-06  0.233E-03    3.92      10.1  T
   5    -22.4689352 -0.889782E-07  0.563E-04    3.92      41.9  T
   6    -22.4689352 -0.627050E-09  0.202E-04    3.92     116.6  T
     SCC iter.                  ...        0 min,  0.093 sec
     gradient                   ...        0 min,  0.007 sec
 * total energy  :   -22.0595182 Eh     change       -0.1830195E-03 Eh
   gradient norm :     0.0045458 Eh/α   predicted    -0.1276014E-03 ( -30.28%)
   displ. norm   :     0.0547600 α      lambda       -0.1348306E-03
   maximum displ.:     0.0391114 α      in ANC's #15, #1, #14, ...

........................................................................
.............................. CYCLE    5 ..............................
........................................................................
   1    -22.4686080 -0.224686E+02  0.691E-02    3.93       0.0  T
   2    -22.4686101 -0.207710E-05  0.387E-02    3.92       1.0  T
   3    -22.4686093  0.846201E-06  0.120E-02    3.92       2.0  T
   4    -22.4686104 -0.111290E-05  0.236E-03    3.92      10.0  T
   5    -22.4686105 -0.937003E-07  0.652E-04    3.92      36.2  T
   6    -22.4686105 -0.148230E-08  0.329E-04    3.92      71.7  T
     SCC iter.                  ...        0 min,  0.143 sec
     gradient                   ...        0 min,  0.015 sec
 * total energy  :   -22.0595972 Eh     change       -0.7891752E-04 Eh
   gradient norm :     0.0033868 Eh/α   predicted    -0.6761774E-04 ( -14.32%)
   displ. norm   :     0.0188379 α      lambda       -0.1870545E-04
   maximum displ.:     0.0127440 α      in ANC's #15, #1, #3, ...

........................................................................
.............................. CYCLE    6 ..............................
........................................................................
   1    -22.4690421 -0.224690E+02  0.228E-02    3.93       0.0  T
   2    -22.4690425 -0.364615E-06  0.125E-02    3.93       1.9  T
   3    -22.4690423  0.225684E-06  0.627E-03    3.93       3.8  T
   4    -22.4690426 -0.339139E-06  0.116E-03    3.93      20.3  T
   5    -22.4690426 -0.206227E-07  0.222E-04    3.93     106.2  T
   6    -22.4690426 -0.318998E-10  0.108E-04    3.93     218.4  T
     SCC iter.                  ...        0 min,  0.182 sec
     gradient                   ...        0 min,  0.012 sec
 * total energy  :   -22.0596103 Eh     change       -0.1316533E-04 Eh
   gradient norm :     0.0023172 Eh/α   predicted    -0.9358241E-05 ( -28.92%)
   displ. norm   :     0.0137051 α      lambda       -0.9074405E-05
   maximum displ.:     0.0069334 α      in ANC's #3, #15, #5, ...

........................................................................
.............................. CYCLE    7 ..............................
........................................................................
   1    -22.4695734 -0.224696E+02  0.151E-02    3.93       0.0  T
   2    -22.4695736 -0.204238E-06  0.846E-03    3.93       2.8  T
   3    -22.4695735  0.116319E-06  0.466E-03    3.93       5.1  T
   4    -22.4695736 -0.194111E-06  0.882E-04    3.93      26.7  T
   5    -22.4695737 -0.111592E-07  0.164E-04    3.93     143.6  T
     SCC iter.                  ...        0 min,  0.152 sec
     gradient                   ...        0 min,  0.018 sec
 * total energy  :   -22.0596155 Eh     change       -0.5182877E-05 Eh
   gradient norm :     0.0005047 Eh/α   predicted    -0.4537416E-05 ( -12.45%)
   displ. norm   :     0.0049622 α      lambda       -0.7232724E-06
   maximum displ.:     0.0036714 α      in ANC's #5, #17, #22, ...

........................................................................
.............................. CYCLE    8 ..............................
........................................................................
   1    -22.4697262 -0.224697E+02  0.529E-03    3.93       0.0  T
   2    -22.4697262 -0.127858E-07  0.309E-03    3.93       7.6  T
   3    -22.4697262  0.858878E-08  0.893E-04    3.93      26.4  T
   4    -22.4697262 -0.109242E-07  0.199E-04    3.93     118.2  T
     SCC iter.                  ...        0 min,  0.064 sec
     gradient                   ...        0 min,  0.012 sec
 * total energy  :   -22.0596160 Eh     change       -0.4961951E-06 Eh
   gradient norm :     0.0002695 Eh/α   predicted    -0.3630023E-06 ( -26.84%)
   displ. norm   :     0.0013212 α      lambda       -0.1024367E-06
   maximum displ.:     0.0005961 α      in ANC's #15, #17, #20, ...

   *** GEOMETRY OPTIMIZATION CONVERGED AFTER 8 ITERATIONS ***

------------------------------------------------------------------------
 total energy gain   :        -0.0126353 Eh       -7.9288 kcal/mol
 total RMSD          :         0.0663857 a0        0.0351 Å
 total power (kW/mol):        -4.1467398 (step)  -23.8401 (real)
------------------------------------------------------------------------

 ANCopt (total)                0 d,  0 h,  0 min,  1.392 sec
 optimizer setup                ...        0 min,  0.000 sec (  0.015%)
 model hessian                  ...        0 min,  0.044 sec (  3.177%)
 ANC generation                 ...        0 min,  0.006 sec (  0.444%)
 coordinate transformation      ...        0 min,  0.001 sec (  0.060%)
 single point calculation       ...        0 min,  1.320 sec ( 94.854%)
 optimization log               ...        0 min,  0.002 sec (  0.148%)
 hessian update                 ...        0 min,  0.001 sec (  0.060%)
 rational function              ...        0 min,  0.014 sec (  0.980%)

================
 final structure:
================
18
 xtb: 6.3.3 (7355c4f)
C        -0.42538877047049   -1.11008278695798    1.05306349688513
C         0.91552647982517   -0.88856883561117    0.95850149862104
C         1.15172107664989    0.51073289189016    0.93817542252047
C        -0.04176753251729    1.16260712959150    1.02006121588999
C        -1.14066806495731    0.17554942350527    0.77306551710901
C        -0.37432575243774    0.75690827681809    3.30902549296645
C        -0.59554006250630   -0.55329923934281    3.32805240900244
C         0.73805944776810   -0.09751774851477    3.81258433031154
H        -0.91111587537572   -2.06945319984727    1.01988553895124
H         1.68484602186112   -1.63987620158724    0.99093659113310
H         2.12513694961700    0.96856293077509    0.95306311808455
H        -0.18590785682482    2.22690699787593    0.95750965313977
H        -2.05464693761167    0.33802691628513    1.33800162914083
H        -1.40209598652204    0.20420623108568   -0.29239820260606
H        -0.77106189948699    1.73939107905425    3.37141149298602
H        -1.29248925344613   -1.34893943656583    3.41623250822360
H         0.97225037775967   -0.12165144869626    4.87341258526708
H         1.60746763867331   -0.25350097973696    3.17941770236804

 Bond Distances (Angstroems)
 ---------------------------
C1-C2=1.3624         C1-C5=1.4976         C1-H9=1.0758         C2-C1=1.3624         C2-C3=1.4192         C2-H10=1.0758        
C3-C2=1.4192         C3-C4=1.3624         C3-H11=1.0758        C4-C3=1.3624         C4-C5=1.4976         C4-H12=1.0758        
C5-C1=1.4976         C5-C4=1.4976         C5-H13=1.0867        C5-H14=1.0974        C6-C7=1.3289         C6-C8=1.4903         
C6-H15=1.0614        C7-C6=1.3289         C7-C8=1.4903         C7-H16=1.0614        C8-C6=1.4903         C8-C7=1.4903         
C8-H17=1.0866        C8-H18=1.0868        H9-C1=1.0758         H10-C2=1.0758        H11-C3=1.0758        H12-C4=1.0758        
H13-C5=1.0867        H14-C5=1.0974        H15-C6=1.0614        H16-C7=1.0614        H17-C8=1.0866        H18-C8=1.0868        
 C  H  Rav=1.0784 sigma=0.0108  Rmin=1.0614  Rmax=1.0974    10
 C  C  Rav=1.4311 sigma=0.0670  Rmin=1.3289  Rmax=1.4976     8

 selected bond angles (degree)
 --------------------
C5-C1-C2=108.51                H9-C1-C2=125.96                H9-C1-C5=122.96                C3-C2-C1=108.97                
H10-C2-C1=126.03               H10-C2-C3=124.75               C4-C3-C2=108.97                H11-C3-C2=124.75               
H11-C3-C4=126.03               C5-C4-C3=108.51                H12-C4-C3=125.96               H12-C4-C5=122.96               
C4-C5-C1=100.63                H13-C5-C1=115.65               H13-C5-C4=115.65               H14-C5-C1=108.52               
H14-C5-C4=108.52               H14-C5-H13=107.49              C8-C6-C7= 63.52                H15-C6-C7=148.17               
H15-C6-C8=142.17               C8-C7-C6= 63.52                H16-C7-C6=148.17               H16-C7-C8=142.17               
C7-C8-C6= 52.95                H17-C8-C6=120.23               H17-C8-C7=120.23               H18-C8-C6=118.85               
H18-C8-C7=118.85               H18-C8-H17=113.15              

 selected dihedral angles (degree)
 ---------------------------------
C3-C2-C1-C5= 13.26            C3-C2-C1-H9=175.41            H10-C2-C1-C5=187.72           H10-C2-C1-H9=349.87           
C4-C3-C2-C1=  0.00            C4-C3-C2-H10=185.46           H11-C3-C2-C1=174.54           H11-C3-C2-H10=  0.00          
C5-C4-C3-C2=346.73            C5-C4-C3-H11=172.28           H12-C4-C3-C2=184.59           H12-C4-C3-H11= 10.13          
C4-C5-C1-C2=340.13            C4-C5-C1-H9=177.34            H13-C5-C1-C2=214.77           H13-C5-C1-H9= 51.98           
H14-C5-C1-C2= 93.95           H14-C5-C1-H9=291.15           C1-C5-C4-C3= 19.87            C1-C5-C4-H12=182.67           
H13-C5-C4-C3=145.23           H13-C5-C4-H12=308.02          H14-C5-C4-C3=266.05           H14-C5-C4-H12= 68.85          
C8-C7-C6-H15=209.47           H16-C7-C6-C8=150.53           H16-C7-C6-H15=  0.00          C7-C8-C6-H15=154.97           
H17-C8-C6-C7=253.13           H17-C8-C6-H15= 48.10          H18-C8-C6-C7=105.93           H18-C8-C6-H15=260.90          
C6-C8-C7-H16=205.03           H17-C8-C7-C6=106.87           H17-C8-C7-H16=311.90          H18-C8-C7-C6=254.07           
H18-C8-C7-H16= 99.10          

 CMA Distance (Angstroems)
 ---------------------------
R(CMA):  2.5724
           -------------------------------------------------
          |                Final Singlepoint                |
           -------------------------------------------------

          ...................................................
          :                      SETUP                      :
          :.................................................:
          :  # basis functions                  42          :
          :  # atomic orbitals                  42          :
          :  # shells                           26          :
          :  # electrons                        42          :
          :  max. iterations                   250          :
          :  Hamiltonian                  GFN2-xTB          :
          :  restarted?                      false          :
          :  GBSA solvation                  false          :
          :  PC potential                    false          :
          :  electronic temp.          300.0000000     K    :
          :  accuracy                    1.0000000          :
          :  -> integral cutoff          0.2500000E+02      :
          :  -> integral neglect         0.1000000E-07      :
          :  -> SCF convergence          0.1000000E-05 Eh   :
          :  -> wf. convergence          0.1000000E-03 e    :
          :  Broyden damping             0.4000000          :
          ...................................................

 iter      E             dE          RMSdq      gap      omega  full diag
   1    -22.4697262 -0.224697E+02  0.595E-05    3.93       0.0  T
   2    -22.4697262 -0.706279E-11  0.405E-05    3.93     581.5  T
   3    -22.4697262 -0.454037E-11  0.230E-05    3.93    1023.9  T

   *** convergence criteria satisfied after 3 iterations ***

         #    Occupation            Energy/Eh            Energy/eV
      -------------------------------------------------------------
         1        2.0000           -0.6413415             -17.4518
       ...           ...                  ...                  ...
        15        2.0000           -0.4424635             -12.0400
        16        2.0000           -0.4407255             -11.9928
        17        2.0000           -0.4298821             -11.6977
        18        2.0000           -0.4147246             -11.2852
        19        2.0000           -0.4068362             -11.0706
        20        2.0000           -0.3735944             -10.1660
        21        2.0000           -0.3699785             -10.0676 (HOMO)
        22                         -0.2255686              -6.1380 (LUMO)
        23                         -0.2045306              -5.5656
        24                         -0.1322693              -3.5992
        25                         -0.0125050              -0.3403
        26                          0.1029104               2.8003
       ...                                ...                  ...
        42                          0.8000923              21.7716
      -------------------------------------------------------------
                  HL-Gap            0.1444099 Eh            3.9296 eV
             Fermi-level           -0.2977735 Eh           -8.1028 eV

 SCC (total)                   0 d,  0 h,  0 min,  0.082 sec
 SCC setup                      ...        0 min,  0.002 sec (  1.829%)
 Dispersion                     ...        0 min,  0.000 sec (  0.194%)
 classical contributions        ...        0 min,  0.000 sec (  0.090%)
 integral evaluation            ...        0 min,  0.017 sec ( 20.137%)
 iterations                     ...        0 min,  0.047 sec ( 56.701%)
 molecular gradient             ...        0 min,  0.016 sec ( 19.790%)
 printout                       ...        0 min,  0.001 sec (  0.705%)

         :::::::::::::::::::::::::::::::::::::::::::::::::::::
         ::                     SUMMARY                     ::
         :::::::::::::::::::::::::::::::::::::::::::::::::::::
         :: total energy             -22.059616004610 Eh    ::
         :: gradient norm              0.000269286142 Eh/a0 ::
         :: HOMO-LUMO gap              3.929592958808 eV    ::
         ::.................................................::
         :: SCC energy               -22.469726213294 Eh    ::
         :: -> isotropic ES            0.002925118611 Eh    ::
         :: -> anisotropic ES          0.005179943996 Eh    ::
         :: -> anisotropic XC          0.017602645946 Eh    ::
         :: -> dispersion             -0.015242857187 Eh    ::
         :: repulsion energy           0.410048136294 Eh    ::
         :: add. restraining           0.000010253091 Eh    ::
         :: total charge               0.000000000000 e     ::
         :::::::::::::::::::::::::::::::::::::::::::::::::::::

           -------------------------------------------------
          |                Property Printout                |
           -------------------------------------------------

    * Orbital Energies and Occupations

         #    Occupation            Energy/Eh            Energy/eV
      -------------------------------------------------------------
         1        2.0000           -0.6413415             -17.4518
       ...           ...                  ...                  ...
         9        2.0000           -0.5232139             -14.2374
        10        2.0000           -0.5119076             -13.9297
        11        2.0000           -0.4995982             -13.5948
        12        2.0000           -0.4742704             -12.9056
        13        2.0000           -0.4511895             -12.2775
        14        2.0000           -0.4505975             -12.2614
        15        2.0000           -0.4424635             -12.0400
        16        2.0000           -0.4407255             -11.9928
        17        2.0000           -0.4298821             -11.6977
        18        2.0000           -0.4147246             -11.2852
        19        2.0000           -0.4068362             -11.0706
        20        2.0000           -0.3735944             -10.1660
        21        2.0000           -0.3699785             -10.0676 (HOMO)
        22                         -0.2255686              -6.1380 (LUMO)
        23                         -0.2045306              -5.5656
        24                         -0.1322693              -3.5992
        25                         -0.0125050              -0.3403
        26                          0.1029104               2.8003
        27                          0.1130001               3.0749
        28                          0.1138743               3.0987
        29                          0.1279552               3.4818
        30                          0.1566630               4.2630
        31                          0.1583910               4.3100
        32                          0.1981525               5.3920
       ...                                ...                  ...
        42                          0.8000923              21.7716
      -------------------------------------------------------------
                  HL-Gap            0.1444099 Eh            3.9296 eV
             Fermi-level           -0.2977735 Eh           -8.1028 eV

     #   Z          covCN         q      C6AA      α(0)
     1   6 C        3.046    -0.034    28.804     8.802
     2   6 C        3.008    -0.038    28.919     8.821
     3   6 C        3.008    -0.038    28.919     8.821
     4   6 C        3.046    -0.034    28.804     8.802
     5   6 C        3.888    -0.062    21.633     6.612
     6   6 C        2.917    -0.038    28.947     8.823
     7   6 C        2.917    -0.038    28.947     8.823
     8   6 C        3.805    -0.060    21.659     6.625
     9   1 H        0.926     0.026     2.648     2.545
    10   1 H        0.926     0.026     2.650     2.546
    11   1 H        0.926     0.026     2.650     2.546
    12   1 H        0.926     0.026     2.648     2.545
    13   1 H        0.925     0.052     2.298     2.371
    14   1 H        0.924     0.062     2.175     2.307
    15   1 H        0.927     0.046     2.374     2.410
    16   1 H        0.927     0.046     2.374     2.410
    17   1 H        0.925     0.010     2.891     2.659
    18   1 H        0.925     0.025     2.665     2.553

 Mol. C6AA /au·bohr⁶  :       3296.402469
 Mol. C8AA /au·bohr⁸  :      77582.876214
 Mol. α(0) /au        :         91.020370


Wiberg/Mayer (AO) data.
largest (>0.10) Wiberg bond orders for each atom

 ---------------------------------------------------------------------------
     #   Z sym  total        # sym  WBO       # sym  WBO       # sym  WBO
 ---------------------------------------------------------------------------
     1   6 C    3.986 --     2 C    1.619     5 C    1.029     9 H    0.974
                             7 C    0.191     4 C    0.113
     2   6 C    3.989 --     1 C    1.619     3 C    1.262    10 H    0.972
     3   6 C    3.989 --     4 C    1.619     2 C    1.262    11 H    0.972
     4   6 C    3.986 --     3 C    1.619     5 C    1.029    12 H    0.974
                             6 C    0.191     1 C    0.113
     5   6 C    3.998 --     4 C    1.029     1 C    1.029    13 H    0.962
                            14 H    0.923
     6   6 C    3.947 --     7 C    1.712     8 C    0.974    15 H    0.964
                             4 C    0.191
     7   6 C    3.947 --     6 C    1.712     8 C    0.974    16 H    0.964
                             1 C    0.191
     8   6 C    3.920 --     7 C    0.974     6 C    0.974    17 H    0.970
                            18 H    0.953
     9   1 H    0.999 --     1 C    0.974
    10   1 H    0.999 --     2 C    0.972
    11   1 H    0.999 --     3 C    0.972
    12   1 H    0.999 --     4 C    0.974
    13   1 H    0.997 --     5 C    0.962
    14   1 H    0.995 --     5 C    0.923
    15   1 H    0.998 --     6 C    0.964
    16   1 H    0.998 --     7 C    0.964
    17   1 H    0.998 --     8 C    0.970
    18   1 H    0.999 --     8 C    0.953
 ---------------------------------------------------------------------------

Topologies differ in total number of bonds
Writing topology from bond orders to xtbtopo.mol

molecular dipole:
                 x           y           z       tot (Debye)
 q only:       -0.318       0.051      -0.161
   full:       -0.378       0.061      -0.162       1.057
molecular quadrupole (traceless):
                xx          xy          yy          xz          yz          zz
 q only:        1.392      -0.095       0.807      -1.330       0.194      -2.199
  q+dip:        2.132       0.097       2.678      -1.952       0.234      -4.810
   full:        1.372      -0.019       1.239      -1.846       0.269      -2.611

           -------------------------------------------------
          |                Geometry Summary                 |
           -------------------------------------------------

      molecular mass/u    :      106.1652947
   center of mass at/Å    :        0.0235898      -0.0045260       1.9068210
  moments of inertia/u·Å² :        0.1493713E+03   0.2435053E+03   0.2475725E+03
rotational constants/cm⁻¹ :        0.1128572E+00   0.6922900E-01   0.6809169E-01

 * 16 selected distances

     #   Z          #   Z                                           value/Å
     1   6 C        2   6 C                                       1.3623744
     2   6 C        3   6 C                                       1.4192415
     3   6 C        4   6 C                                       1.3623731
     1   6 C        5   6 C                                       1.4976226 (max)
     4   6 C        5   6 C                                       1.4976222
     6   6 C        7   6 C                                       1.3288873
     1   6 C        9   1 H                                       1.0758360
     2   6 C       10   1 H                                       1.0758101
     3   6 C       11   1 H                                       1.0758106
     4   6 C       12   1 H                                       1.0758361
     5   6 C       13   1 H                                       1.0866964
     5   6 C       14   1 H                                       1.0974419
     6   6 C       15   1 H                                       1.0613972
     7   6 C       16   1 H                                       1.0613940 (min)
     8   6 C       17   1 H                                       1.0866390
     8   6 C       18   1 H                                       1.0867849

 * 2 distinct bonds (by element types)

   Z      Z             #   av. dist./Å        max./Å        min./Å
   1 H    6 C          10     1.0783646     1.0974419     1.0613940
   6 C    6 C           6     1.4113535     1.4976226     1.3288873


optimized geometry written to: xtbopt.xyz


           -------------------------------------------------
          | TOTAL ENERGY              -22.059616004610 Eh   |
          | GRADIENT NORM               0.000269286142 Eh/α |
          | HOMO-LUMO GAP               3.929592958808 eV   |
           -------------------------------------------------

------------------------------------------------------------------------
 * finished run on 2022/09/06 at 17:42:47.956     
------------------------------------------------------------------------
 total:
 * wall-time:     0 d,  0 h,  0 min,  1.695 sec
 *  cpu-time:     0 d,  0 h,  0 min, 52.666 sec
 * ratio c/w:    31.075 speedup
 SCF:
 * wall-time:     0 d,  0 h,  0 min,  0.076 sec
 *  cpu-time:     0 d,  0 h,  0 min,  1.714 sec
 * ratio c/w:    22.599 speedup
 ANC optimizer:
 * wall-time:     0 d,  0 h,  0 min,  1.492 sec
 *  cpu-time:     0 d,  0 h,  0 min, 45.100 sec
 * ratio c/w:    30.229 speedup

