      -----------------------------------------------------------      
     |                   =====================                   |     
     |                           x T B                           |     
     |                   =====================                   |     
     |                         S. Grimme                         |     
     |          Mulliken Center for Theoretical Chemistry        |     
     |                    University of Bonn                     |     
      -----------------------------------------------------------      

   * xtb version 6.3.3 (7355c4f) compiled by 'conda@14e9545d6667' on 2020-09-17

   xtb is free software: you can redistribute it and/or modify it under
   the terms of the GNU Lesser General Public License as published by
   the Free Software Foundation, either version 3 of the License, or
   (at your option) any later version.
   
   xtb is distributed in the hope that it will be useful,
   but WITHOUT ANY WARRANTY; without even the implied warranty of
   MERCHANTABILITY or FITNESS FOR A PARTICULAR PURPOSE.  See the
   GNU Lesser General Public License for more details.
   
   Cite this work as:
   * C. Bannwarth, E. Caldeweyher, S. Ehlert, A. Hansen, P. Pracht,
     J. Seibert, S. Spicher, S. Grimme, WIREs Comput. Mol. Sci., 2020,
     e01493. DOI: 10.1002/wcms.1493
   
   for GFN2-xTB:
   * S. Grimme, C. Bannwarth, P. Shushkov, J. Chem. Theory Comput., 2017,
     13, 1989-2009. DOI: 10.1021/acs.jctc.7b00118
   for GFN1-xTB:
   * C. Bannwarth, S. Ehlert and S. Grimme., J. Chem. Theory Comput., 2019,
     15, 1652-1671. DOI: 10.1021/acs.jctc.8b01176
   for GFN0-xTB:
   * P. Pracht, E. Caldeweyher, S. Ehlert, S. Grimme, ChemRxiv, 2019, preprint.
     DOI: 10.26434/chemrxiv.8326202.v1
   for GFN-FF:
   * S. Spicher and S. Grimme, Angew. Chem. Int. Ed., 2020, 59, 15665-15673.
     DOI: 10.1002/anie.202004239
   
   for DFT-D4:
   * E. Caldeweyher, C. Bannwarth and S. Grimme, J. Chem. Phys., 2017,
     147, 034112. DOI: 10.1063/1.4993215
   * E. Caldeweyher, S. Ehlert, A. Hansen, H. Neugebauer, S. Spicher,
     C. Bannwarth and S. Grimme, J. Chem. Phys., 2019, 150, 154122.
     DOI: 10.1063/1.5090222
   * E. Caldeweyher, J.-M. Mewes, S. Ehlert and S. Grimme, Phys. Chem. Chem. Phys.
     2020, 22, 8499-8512. DOI: 10.1039/D0CP00502A
   
   for sTDA-xTB:
   * S. Grimme and C. Bannwarth, J. Chem. Phys., 2016, 145, 054103.
     DOI: 10.1063/1.4959605
   
   in the mass-spec context:
   * V. Asgeirsson, C. Bauer and S. Grimme, Chem. Sci., 2017, 8, 4879.
     DOI: 10.1039/c7sc00601b
   * J. Koopman and S. Grimme, ACS Omega 2019, 4, 12, 15120-15133.
     DOI: 10.1021/acsomega.9b02011
   
   for metadynamics refer to:
   * S. Grimme, J. Chem. Theory Comput., 2019, 155, 2847-2862
     DOI: 10.1021/acs.jctc.9b00143
   
   with help from (in alphabetical order)
   C. Bannwarth, F. Bohle, G. Brandenburg, E. Caldeweyher, M. Checinski,
   S. Dohm, S. Ehlert, S. Ehrlich, F. März, H. Neugebauer, J. Pisarek,
   P. Pracht, P. Shushkov, and S. Spicher.
   
 * started run on 2022/09/06 at 17:42:36.835     

           -------------------------------------------------
          |                Calculation Setup                |
           -------------------------------------------------

          program call               : xtb /home/svss/Project-DBcg-Debug/aqme2_20220329/20220906-example-end-to-end/End-to-end_Workflows/End-to-end workflow 2, SN2 PES/AQME inputs/CSEARCH/crest_xyz/TS1_crest/TS1_crest.xyz --opt --input constrain1.inp -c 0 --uhf 0 -P 8
          hostname                   : fireball.chem.colostate.edu
          coordinate file            : /home/svss/Project-DBcg-Debug/aqme2_20220329/20220906-example-end-to-end/End-to-end_Workflows/End-to-end workflow 2, SN2 PES/AQME inputs/CSEARCH/crest_xyz/TS1_crest/TS1_crest.xyz
          omp threads                :                     8
          number of atoms            :                    18
          number of electrons        :                    42
          charge                     :                     0
          spin                       :                   0.0
          first test random number   :      0.14086333330304

   ID    Z sym.   atoms
    1    6 C      1-8
    2    1 H      9-18
constraining bond 4 6 to    2.3500000 Å, actual value:    5.1852550 Å
constraining bond 1 7 to    2.3500000 Å, actual value:    4.9570063 Å
constraining bond 1 2 to    1.3220000 Å, actual value:    1.3216855 Å
constraining bond 2 3 to    1.4560000 Å, actual value:    1.4564178 Å
constraining bond 3 4 to    1.3210000 Å, actual value:    1.3208182 Å
constraining bond 4 5 to    1.4880000 Å, actual value:    1.4880268 Å
constraining bond 5 1 to    1.4880000 Å, actual value:    1.4883032 Å
constraining bond 6 7 to    1.4460000 Å, actual value:    1.4457845 Å
constraining bond 7 8 to    1.4120000 Å, actual value:    1.4115200 Å
constraining bond 8 6 to    1.4100000 Å, actual value:    1.4103193 Å
constraining bond 1 9 to    1.0860000 Å, actual value:    1.0861794 Å
constraining bond 2 10 to    1.0810000 Å, actual value:    1.0810620 Å
constraining bond 3 11 to    1.0820000 Å, actual value:    1.0819586 Å
constraining bond 4 12 to    1.0850000 Å, actual value:    1.0850987 Å
constraining bond 5 13 to    1.1090000 Å, actual value:    1.1094051 Å
constraining bond 5 14 to    1.1060000 Å, actual value:    1.1060638 Å
constraining bond 6 15 to    1.0830000 Å, actual value:    1.0828868 Å
constraining bond 7 16 to    1.0840000 Å, actual value:    1.0840584 Å
constraining bond 8 17 to    1.1130000 Å, actual value:    1.1130001 Å
constraining bond 8 18 to    1.1130000 Å, actual value:    1.1125065 Å

molecular fragmentation (1/2 indicates fragments):
111112221111112222
# atoms in fragment 1/2:    11     7
 fragment masses (1/2) :       66.10       40.06
CMA distance (Bohr)    :   9.412
constraining FC (au)   :  0.5000
########################################################################
[WARNING] Please study the warnings concerning your input carefully
-1- prog_main_parseArguments: Process number higher than OMP_NUM_THREADS, I hope you know what you are doing.
########################################################################

           -------------------------------------------------
          |                 G F N 2 - x T B                 |
           -------------------------------------------------

        Reference                      10.1021/acs.jctc.8b01176
      * Hamiltonian:
        H0-scaling (s, p, d)           1.850000    2.230000    2.230000
        zeta-weighting                 0.500000
      * Dispersion:
        s8                             2.700000
        a1                             0.520000
        a2                             5.000000
        s9                             5.000000
      * Repulsion:
        kExp                           1.500000    1.000000
        rExp                           1.000000
      * Coulomb:
        alpha                          2.000000
        third order                    shell-resolved
        anisotropic                    true
        a3                             3.000000
        a5                             4.000000
        cn-shift                       1.200000
        cn-exp                         4.000000
        max-rad                        5.000000


          ...................................................
          :                      SETUP                      :
          :.................................................:
          :  # basis functions                  42          :
          :  # atomic orbitals                  42          :
          :  # shells                           26          :
          :  # electrons                        42          :
          :  max. iterations                   250          :
          :  Hamiltonian                  GFN2-xTB          :
          :  restarted?                      false          :
          :  GBSA solvation                  false          :
          :  PC potential                    false          :
          :  electronic temp.          300.0000000     K    :
          :  accuracy                    1.0000000          :
          :  -> integral cutoff          0.2500000E+02      :
          :  -> integral neglect         0.1000000E-07      :
          :  -> SCF convergence          0.1000000E-05 Eh   :
          :  -> wf. convergence          0.1000000E-03 e    :
          :  Broyden damping             0.4000000          :
          ...................................................

 iter      E             dE          RMSdq      gap      omega  full diag
   1    -22.4005552 -0.224006E+02  0.468E+00    3.36       0.0  T
   2    -22.4268810 -0.263258E-01  0.276E+00    3.17       1.0  T
   3    -22.4243927  0.248831E-02  0.737E-01    3.01       1.0  T
   4    -22.4214571  0.293555E-02  0.670E-01    3.04       1.0  T
   5    -22.4273823 -0.592523E-02  0.257E-01    3.05       1.0  T
   6    -22.4283765 -0.994155E-03  0.562E-02    3.04       1.0  T
   7    -22.4284002 -0.237336E-04  0.244E-02    3.04       1.0  T
   8    -22.4284008 -0.569457E-06  0.300E-03    3.05       7.9  T
   9    -22.4284008 -0.831830E-08  0.124E-03    3.05      19.1  T
  10    -22.4284008 -0.757770E-08  0.683E-04    3.05      34.5  T
  11    -22.4284008 -0.276195E-08  0.140E-04    3.05     168.9  T

   *** convergence criteria satisfied after 11 iterations ***

         #    Occupation            Energy/Eh            Energy/eV
      -------------------------------------------------------------
         1        2.0000           -0.6446770             -17.5426
       ...           ...                  ...                  ...
        15        2.0000           -0.4430613             -12.0563
        16        2.0000           -0.4420039             -12.0275
        17        2.0000           -0.4357678             -11.8578
        18        2.0000           -0.4250868             -11.5672
        19        2.0000           -0.4152400             -11.2993
        20        2.0000           -0.3751211             -10.2076
        21        2.0000           -0.3576866              -9.7331 (HOMO)
        22                         -0.2457642              -6.6876 (LUMO)
        23                         -0.2274533              -6.1893
        24                         -0.1366387              -3.7181
        25                          0.0047791               0.1300
        26                          0.0367802               1.0008
       ...                                ...                  ...
        42                          0.7369034              20.0522
      -------------------------------------------------------------
                  HL-Gap            0.1119224 Eh            3.0456 eV
             Fermi-level           -0.3017254 Eh           -8.2104 eV

 SCC (total)                   0 d,  0 h,  0 min,  0.255 sec
 SCC setup                      ...        0 min,  0.000 sec (  0.191%)
 Dispersion                     ...        0 min,  0.001 sec (  0.237%)
 classical contributions        ...        0 min,  0.006 sec (  2.342%)
 integral evaluation            ...        0 min,  0.004 sec (  1.680%)
 iterations                     ...        0 min,  0.234 sec ( 91.637%)
 molecular gradient             ...        0 min,  0.008 sec (  3.253%)
 printout                       ...        0 min,  0.001 sec (  0.434%)

         :::::::::::::::::::::::::::::::::::::::::::::::::::::
         ::                     SUMMARY                     ::
         :::::::::::::::::::::::::::::::::::::::::::::::::::::
         :: total energy               4.467212264686 Eh    ::
         :: gradient norm             10.276280395591 Eh/a0 ::
         :: HOMO-LUMO gap              3.045563623670 eV    ::
         ::.................................................::
         :: SCC energy               -22.428400825414 Eh    ::
         :: -> isotropic ES            0.002832840361 Eh    ::
         :: -> anisotropic ES          0.004417589937 Eh    ::
         :: -> anisotropic XC          0.021078221505 Eh    ::
         :: -> dispersion             -0.009613384608 Eh    ::
         :: repulsion energy           0.406833521632 Eh    ::
         :: add. restraining          26.488643995219 Eh    ::
         :: total charge               0.000000000000 e     ::
         :::::::::::::::::::::::::::::::::::::::::::::::::::::

      ----------------------------------------------------------- 
     |                   =====================                   |
     |                        A N C O P T                        |
     |                   =====================                   |
     |               Approximate Normal Coordinate               |
     |                Rational Function Optimizer                |
      ----------------------------------------------------------- 

          ...................................................
          :                      SETUP                      :
          :.................................................:
          :   optimization level            normal          :
          :   max. optcycles                   200          :
          :   ANC micro-cycles                  20          :
          :   degrees of freedom                48          :
          :.................................................:
          :   RF solver                   davidson          :
          :   write xtbopt.log                true          :
          :   linear?                        false          :
          :   energy convergence         0.5000000E-05 Eh   :
          :   grad. convergence          0.1000000E-02 Eh/α :
          :   maximium RF displ.         1.0000000          :
          :   Hlow (freq-cutoff)         0.1000000E-01      :
          :   Hmax (freq-cutoff)         5.0000000          :
          :   S6 in model hess.         20.0000000          :
          ...................................................

generating ANC from model Hessian ...
Using Lindh-Hessian (1995)
 Shifting diagonal of input Hessian by    9.8983484027730922E-003
 Lowest  eigenvalues of input Hessian
    0.000000    0.000000    0.000000    0.000000    0.000000    0.000000
    0.010000    0.010324    0.010577    0.019310    0.023405    0.026309
    0.029480    0.036049    0.037634    0.048414    0.059701    0.082641
 Highest eigenvalues
    4.365433    4.558054    4.591177    4.869406    5.118092    6.715043


........................................................................
.............................. CYCLE    1 ..............................
........................................................................
   1    -22.4284008 -0.224284E+02  0.499E-05    3.05       0.0  T
   2    -22.4284008 -0.146017E-11  0.294E-05    3.05     802.5  T
   3    -22.4284008  0.300204E-11  0.183E-05    3.05    1290.2  T
     SCC iter.                  ...        0 min,  0.061 sec
     gradient                   ...        0 min,  0.007 sec
 * total energy  :     4.4672123 Eh     change       -0.3419132E-10 Eh
   gradient norm :    10.2762804 Eh/α   predicted     0.0000000E+00 (-100.00%)
   displ. norm   :     0.9024464 α      lambda       -0.9268520E+01
   maximum displ.:     0.6995725 α      in ANC's #36, #35, #32, ...

........................................................................
.............................. CYCLE    2 ..............................
........................................................................
   1    -22.3557152 -0.223557E+02  0.995E-01    2.47       0.0  T
   2    -22.3558225 -0.107284E-03  0.597E-01    2.48       1.0  T
   3    -22.3522365  0.358598E-02  0.532E-01    2.49       1.0  T
   4    -22.3551445 -0.290796E-02  0.268E-01    2.49       1.0  T
   5    -22.3563241 -0.117964E-02  0.298E-02    2.49       1.0  T
   6    -22.3563319 -0.778418E-05  0.107E-02    2.49       2.2  T
   7    -22.3563322 -0.291168E-06  0.382E-03    2.49       6.2  T
   8    -22.3563322 -0.349430E-07  0.233E-03    2.49      10.1  T
   9    -22.3563323 -0.552498E-07  0.525E-04    2.49      44.9  T
  10    -22.3563323 -0.419867E-09  0.665E-05    2.49     354.4  T
     SCC iter.                  ...        0 min,  0.298 sec
     gradient                   ...        0 min,  0.027 sec
 * total energy  :    -3.9393381 Eh     change       -0.8406550E+01 Eh
   gradient norm :     8.3402896 Eh/α   predicted    -0.8408446E+01 (   0.02%)
   displ. norm   :     0.8814357 α      lambda       -0.7345961E+01
   maximum displ.:     0.6805133 α      in ANC's #36, #35, #32, ...

........................................................................
.............................. CYCLE    3 ..............................
........................................................................
   1    -22.1666358 -0.221666E+02  0.136E+00    1.59       0.0  T
   2    -22.1654838  0.115199E-02  0.835E-01    1.59       1.0  T
   3    -22.1527693  0.127145E-01  0.109E+00    1.62       1.0  T
   4    -22.1592604 -0.649108E-02  0.777E-01    1.62       1.0  T
   5    -22.1694123 -0.101519E-01  0.716E-02    1.60       1.0  T
   6    -22.1694741 -0.617449E-04  0.263E-02    1.60       1.0  T
   7    -22.1694739  0.127571E-06  0.203E-02    1.60       1.2  T
   8    -22.1694780 -0.407161E-05  0.555E-03    1.60       4.3  T
   9    -22.1694782 -0.199697E-06  0.141E-03    1.60      16.7  T
  10    -22.1694782 -0.229929E-08  0.338E-04    1.60      69.7  T
  11    -22.1694782 -0.799179E-09  0.968E-05    1.60     243.4  T
     SCC iter.                  ...        0 min,  0.297 sec
     gradient                   ...        0 min,  0.020 sec
 * total energy  :   -10.3995685 Eh     change       -0.6460230E+01 Eh
   gradient norm :     6.2885774 Eh/α   predicted    -0.6526624E+01 (   1.03%)
   displ. norm   :     0.8434978 α      lambda       -0.5279046E+01
   maximum displ.:     0.6339892 α      in ANC's #36, #35, #31, ...

........................................................................
.............................. CYCLE    4 ..............................
........................................................................
   1    -21.9294474 -0.219294E+02  0.152E+00    0.80       0.0  T
   2    -21.8969410  0.325064E-01  0.159E+00    0.82       1.0  T
   3    -21.8675917  0.293493E-01  0.209E+00    0.92       1.0  T
   4    -21.9240273 -0.564356E-01  0.869E-01    0.80       1.0  T
   5    -21.9352795 -0.112522E-01  0.202E-01    0.81       1.0  T
   6    -21.9357782 -0.498739E-03  0.955E-02    0.81       1.0  T
   7    -21.9358291 -0.508942E-04  0.710E-02    0.81       1.0  T
   8    -21.9358335 -0.440002E-05  0.365E-02    0.80       1.0  T
   9    -21.9358425 -0.895992E-05  0.770E-03    0.80       3.1  T
  10    -21.9358428 -0.308197E-06  0.165E-03    0.80      14.3  T
  11    -21.9358428 -0.463078E-08  0.875E-04    0.80      26.9  T
  12    -21.9358428 -0.887056E-09  0.426E-04    0.80      55.3  T
     SCC iter.                  ...        0 min,  0.419 sec
     gradient                   ...        0 min,  0.004 sec
 * total energy  :   -14.8495507 Eh     change       -0.4449982E+01 Eh
   gradient norm :     4.2683937 Eh/α   predicted    -0.4517513E+01 (   1.52%)
   displ. norm   :     0.8083326 α      lambda       -0.3367971E+01
   maximum displ.:     0.5442169 α      in ANC's #36, #35, #19, ...

........................................................................
.............................. CYCLE    5 ..............................
........................................................................
   1    -21.7351199 -0.217351E+02  0.159E+00    0.30       0.0  T
   2    -21.5036829  0.231437E+00  0.381E+00    0.61       1.0  T
   3    -21.7008488 -0.197166E+00  0.184E+00    0.37       1.0  T
   4    -21.7326782 -0.318294E-01  0.106E+00    0.31       1.0  T
   5    -21.7472328 -0.145546E-01  0.443E-01    0.32       1.0  T
   6    -21.7486142 -0.138143E-02  0.319E-01    0.31       1.0  T
   7    -21.7487911 -0.176880E-03  0.246E-01    0.31       1.0  T
   8    -21.7491265 -0.335342E-03  0.104E-01    0.30       1.0  T
   9    -21.7492557 -0.129231E-03  0.679E-02    0.29       1.0  T
  10    -21.7492678 -0.121392E-04  0.422E-02    0.29       1.0  T
  11    -21.7492891 -0.212691E-04  0.189E-02    0.29       1.2  T
  12    -21.7492904 -0.131953E-05  0.196E-03    0.29      12.0  T
  13    -21.7492904 -0.168482E-07  0.157E-03    0.29      15.0  T
  14    -21.7492905 -0.226347E-07  0.450E-04    0.29      52.4  T
  15    -21.7492905 -0.858833E-09  0.368E-04    0.29      64.0  T
     SCC iter.                  ...        0 min,  0.343 sec
     gradient                   ...        0 min,  0.004 sec
 * total energy  :   -17.6047138 Eh     change       -0.2755163E+01 Eh
   gradient norm :     2.6464700 Eh/α   predicted    -0.2784305E+01 (   1.06%)
   displ. norm   :     0.8230985 α      lambda       -0.2048815E+01
   maximum displ.:     0.4053441 α      in ANC's #36, #35, #19, ...

........................................................................
.............................. CYCLE    6 ..............................
........................................................................
   1    -21.6761514 -0.216762E+02  0.148E+00    0.13       0.0  T
   2    -21.4351932  0.240958E+00  0.393E+00    0.50       1.0  T
   3    -21.6630604 -0.227867E+00  0.132E+00    0.19       1.0  T
   4    -21.6332318  0.298286E-01  0.182E+00    0.16       1.0  T
   5    -21.6825741 -0.493423E-01  0.592E-01    0.16       1.0  T
   6    -21.6850839 -0.250975E-02  0.415E-01    0.15       1.0  T
   7    -21.6860675 -0.983599E-03  0.196E-01    0.15       1.0  T
   8    -21.6868054 -0.737925E-03  0.158E-01    0.15       1.0  T
   9    -21.6867603  0.451072E-04  0.162E-01    0.15       1.0  T
  10    -21.6868579 -0.975528E-04  0.129E-01    0.15       1.0  T
  11    -21.6869839 -0.126000E-03  0.814E-02    0.15       1.0  T
  12    -21.6870635 -0.796377E-04  0.280E-02    0.15       1.0  T
  13    -21.6870714 -0.793039E-05  0.900E-03    0.15       2.6  T
  14    -21.6870721 -0.660256E-06  0.509E-03    0.15       4.6  T
  15    -21.6870724 -0.305987E-06  0.297E-04    0.15      79.4  T
  16    -21.6870724 -0.142897E-09  0.736E-05    0.15     320.2  T
     SCC iter.                  ...        0 min,  0.493 sec
     gradient                   ...        0 min,  0.004 sec
 * total energy  :   -19.3089492 Eh     change       -0.1704235E+01 Eh
   gradient norm :     1.6617070 Eh/α   predicted    -0.1718435E+01 (   0.83%)
   displ. norm   :     0.8427441 α      lambda       -0.1315379E+01
   maximum displ.:     0.3721746 α      in ANC's #19, #1, #3, ...

........................................................................
.............................. CYCLE    7 ..............................
........................................................................
   1    -21.7294441 -0.217294E+02  0.801E-01    0.24       0.0  T
   2    -21.7107474  0.186967E-01  0.109E+00    0.28       1.0  T
   3    -21.6913181  0.194293E-01  0.161E+00    0.25       1.0  T
   4    -21.7034238 -0.121057E-01  0.991E-01    0.26       1.0  T
   5    -21.7286550 -0.252312E-01  0.317E-01    0.26       1.0  T
   6    -21.7307962 -0.214121E-02  0.157E-01    0.25       1.0  T
   7    -21.7310693 -0.273069E-03  0.107E-01    0.25       1.0  T
   8    -21.7310723 -0.307616E-05  0.951E-02    0.25       1.0  T
   9    -21.7310915 -0.191494E-04  0.277E-02    0.24       1.0  T
  10    -21.7311049 -0.134376E-04  0.112E-02    0.24       2.1  T
  11    -21.7311055 -0.530690E-06  0.549E-03    0.24       4.3  T
  12    -21.7311055 -0.114906E-07  0.436E-03    0.24       5.4  T
  13    -21.7311057 -0.238447E-06  0.153E-03    0.24      15.4  T
  14    -21.7311058 -0.348784E-07  0.151E-04    0.24     155.6  T
  15    -21.7311058  0.147438E-11  0.983E-05    0.24     239.7  T
     SCC iter.                  ...        0 min,  0.423 sec
     gradient                   ...        0 min,  0.004 sec
 * total energy  :   -20.4163988 Eh     change       -0.1107450E+01 Eh
   gradient norm :     1.0918627 Eh/α   predicted    -0.1124792E+01 (   1.57%)
   displ. norm   :     0.7959725 α      lambda       -0.8334700E+00
   maximum displ.:     0.4240122 α      in ANC's #19, #3, #1, ...

........................................................................
.............................. CYCLE    8 ..............................
........................................................................
   1    -21.8117883 -0.218118E+02  0.749E-01    0.49       0.0  T
   2    -21.8016425  0.101458E-01  0.822E-01    0.53       1.0  T
   3    -21.7984690  0.317343E-02  0.945E-01    0.49       1.0  T
   4    -21.8047163 -0.624726E-02  0.539E-01    0.51       1.0  T
   5    -21.8121071 -0.739079E-02  0.176E-01    0.51       1.0  T
   6    -21.8129886 -0.881500E-03  0.612E-02    0.50       1.0  T
   7    -21.8130420 -0.533849E-04  0.313E-02    0.50       1.0  T
   8    -21.8130408  0.120885E-05  0.183E-02    0.50       1.3  T
   9    -21.8130428 -0.202109E-05  0.450E-03    0.50       5.2  T
  10    -21.8130431 -0.287009E-06  0.206E-03    0.50      11.4  T
  11    -21.8130431 -0.283325E-07  0.895E-04    0.50      26.3  T
  12    -21.8130431 -0.131357E-07  0.270E-04    0.50      87.4  T
     SCC iter.                  ...        0 min,  0.297 sec
     gradient                   ...        0 min,  0.023 sec
 * total energy  :   -21.0959447 Eh     change       -0.6795459E+00 Eh
   gradient norm :     0.6766557 Eh/α   predicted    -0.6807666E+00 (   0.18%)
   displ. norm   :     0.7611464 α      lambda       -0.4855223E+00
   maximum displ.:     0.4391473 α      in ANC's #19, #3, #1, ...

........................................................................
.............................. CYCLE    9 ..............................
........................................................................
   1    -21.9368714 -0.219369E+02  0.590E-01    0.92       0.0  T
   2    -21.9347183  0.215312E-02  0.484E-01    0.93       1.0  T
   3    -21.9327447  0.197362E-02  0.520E-01    0.94       1.0  T
   4    -21.9372131 -0.446842E-02  0.211E-01    0.93       1.0  T
   5    -21.9379035 -0.690392E-03  0.431E-02    0.93       1.0  T
   6    -21.9379333 -0.297814E-04  0.146E-02    0.93       1.6  T
   7    -21.9379225  0.108213E-04  0.216E-02    0.93       1.1  T
   8    -21.9379338 -0.113215E-04  0.411E-03    0.93       5.7  T
   9    -21.9379341 -0.355135E-06  0.180E-03    0.93      13.1  T
  10    -21.9379342 -0.540625E-07  0.750E-04    0.93      31.4  T
  11    -21.9379342 -0.321393E-08  0.164E-04    0.93     143.6  T
     SCC iter.                  ...        0 min,  0.337 sec
     gradient                   ...        0 min,  0.015 sec
 * total energy  :   -21.4678104 Eh     change       -0.3718656E+00 Eh
   gradient norm :     0.4610252 Eh/α   predicted    -0.3834034E+00 (   3.10%)
   displ. norm   :     0.8599455 α      lambda       -0.3427402E+00
   maximum displ.:     0.6270142 α      in ANC's #19, #8, #14, ...

........................................................................
.............................. CYCLE   10 ..............................
........................................................................
   1    -22.0355734 -0.220356E+02  0.118E+00    1.04       0.0  T
   2    -22.0202291  0.153443E-01  0.115E+00    0.96       1.0  T
   3    -22.0425669 -0.223378E-01  0.606E-01    0.98       1.0  T
   4    -22.0459222 -0.335529E-02  0.353E-01    0.97       1.0  T
   5    -22.0469643 -0.104208E-02  0.221E-01    0.95       1.0  T
   6    -22.0479014 -0.937118E-03  0.482E-02    0.96       1.0  T
   7    -22.0479263 -0.248982E-04  0.167E-02    0.95       1.4  T
   8    -22.0479282 -0.183440E-05  0.507E-03    0.95       4.7  T
   9    -22.0479283 -0.133925E-06  0.243E-03    0.95       9.7  T
  10    -22.0479283 -0.456612E-07  0.687E-04    0.95      34.3  T
  11    -22.0479283  0.895284E-12  0.373E-04    0.95      63.2  T
     SCC iter.                  ...        0 min,  0.212 sec
     gradient                   ...        0 min,  0.004 sec
 * total energy  :   -21.5124274 Eh     change       -0.4461706E-01 Eh
   gradient norm :     0.9449311 Eh/α   predicted    -0.2980994E+00 ( 568.13%)
   displ. norm   :     0.6530033 α      lambda       -0.4143043E+00
   maximum displ.:     0.3919989 α      in ANC's #1, #3, #19, ...

........................................................................
.............................. CYCLE   11 ..............................
........................................................................
   1    -22.1521513 -0.221522E+02  0.771E-01    1.59       0.0  T
   2    -22.1433097  0.884164E-02  0.890E-01    1.62       1.0  T
   3    -22.1584075 -0.150979E-01  0.325E-01    1.62       1.0  T
   4    -22.1583965  0.110474E-04  0.185E-01    1.62       1.0  T
   5    -22.1585800 -0.183496E-03  0.104E-01    1.63       1.0  T
   6    -22.1587815 -0.201479E-03  0.174E-02    1.63       1.4  T
   7    -22.1587831 -0.162201E-05  0.870E-03    1.63       2.7  T
   8    -22.1587838 -0.692955E-06  0.336E-03    1.63       7.0  T
   9    -22.1587839 -0.767902E-07  0.821E-04    1.63      28.7  T
  10    -22.1587839 -0.195514E-08  0.465E-04    1.63      50.7  T
     SCC iter.                  ...        0 min,  0.277 sec
     gradient                   ...        0 min,  0.018 sec
 * total energy  :   -21.7537777 Eh     change       -0.2413503E+00 Eh
   gradient norm :     0.2589042 Eh/α   predicted    -0.2954845E+00 (  22.43%)
   displ. norm   :     0.7395797 α      lambda       -0.1520907E+00
   maximum displ.:     0.4180917 α      in ANC's #19, #3, #1, ...

........................................................................
.............................. CYCLE   12 ..............................
........................................................................
   1    -22.2971593 -0.222972E+02  0.151E+00    1.79       0.0  T
   2    -22.2977093 -0.550014E-03  0.892E-01    1.78       1.0  T
   3    -22.2903334  0.737597E-02  0.716E-01    1.79       1.0  T
   4    -22.2975971 -0.726379E-02  0.276E-01    1.76       1.0  T
   5    -22.2990406 -0.144345E-02  0.516E-02    1.76       1.0  T
   6    -22.2990834 -0.427585E-04  0.191E-02    1.76       1.2  T
   7    -22.2990873 -0.393885E-05  0.813E-03    1.76       2.9  T
   8    -22.2990876 -0.330667E-06  0.264E-03    1.76       8.9  T
   9    -22.2990877 -0.332208E-07  0.823E-04    1.76      28.6  T
  10    -22.2990877 -0.210287E-08  0.381E-04    1.76      61.8  T
     SCC iter.                  ...        0 min,  0.247 sec
     gradient                   ...        0 min,  0.005 sec
 * total energy  :   -21.8317051 Eh     change       -0.7792735E-01 Eh
   gradient norm :     0.5824202 Eh/α   predicted    -0.1176406E+00 (  50.96%)
   displ. norm   :     0.7033405 α      lambda       -0.1557766E+00
   maximum displ.:     0.4172235 α      in ANC's #19, #8, #3, ...

........................................................................
.............................. CYCLE   13 ..............................
........................................................................
   1    -22.3371856 -0.223372E+02  0.104E+00    1.98       0.0  T
   2    -22.3353202  0.186540E-02  0.731E-01    2.00       1.0  T
   3    -22.3342955  0.102467E-02  0.663E-01    1.99       1.0  T
   4    -22.3391362 -0.484069E-02  0.190E-01    1.99       1.0  T
   5    -22.3398843 -0.748083E-03  0.320E-02    1.99       1.0  T
   6    -22.3399010 -0.166574E-04  0.121E-02    1.99       1.9  T
   7    -22.3399017 -0.712872E-06  0.668E-03    1.99       3.5  T
   8    -22.3399020 -0.329723E-06  0.129E-03    1.99      18.3  T
   9    -22.3399020 -0.293953E-08  0.609E-04    1.99      38.7  T
  10    -22.3399020 -0.134741E-08  0.273E-04    1.99      86.2  T
     SCC iter.                  ...        0 min,  0.270 sec
     gradient                   ...        0 min,  0.004 sec
 * total energy  :   -21.9142718 Eh     change       -0.8256674E-01 Eh
   gradient norm :     0.3946660 Eh/α   predicted    -0.1164187E+00 (  41.00%)
   displ. norm   :     0.7194853 α      lambda       -0.1609238E+00
   maximum displ.:     0.3752180 α      in ANC's #2, #1, #3, ...

........................................................................
.............................. CYCLE   14 ..............................
........................................................................
   1    -22.3438440 -0.223438E+02  0.895E-01    2.42       0.0  T
   2    -22.3423091  0.153493E-02  0.667E-01    2.42       1.0  T
   3    -22.3451613 -0.285215E-02  0.452E-01    2.43       1.0  T
   4    -22.3467142 -0.155295E-02  0.118E-01    2.43       1.0  T
   5    -22.3469476 -0.233408E-03  0.276E-02    2.43       1.0  T
   6    -22.3469527 -0.504588E-05  0.145E-02    2.43       1.6  T
   7    -22.3469538 -0.113568E-05  0.648E-03    2.43       3.6  T
   8    -22.3469544 -0.556802E-06  0.256E-03    2.43       9.2  T
   9    -22.3469544 -0.796635E-07  0.102E-03    2.43      23.1  T
  10    -22.3469544 -0.808979E-08  0.493E-04    2.43      47.8  T
  11    -22.3469544 -0.977543E-09  0.903E-05    2.43     261.0  T
     SCC iter.                  ...        0 min,  0.174 sec
     gradient                   ...        0 min,  0.005 sec
 * total energy  :   -21.8875025 Eh     change        0.2676936E-01 Eh
   gradient norm :     0.7100477 Eh/α   predicted    -0.1221138E+00 (-556.17%)
   displ. norm   :     0.4121058 α      lambda       -0.1719803E+00
   maximum displ.:     0.1555271 α      in ANC's #14, #2, #1, ...

........................................................................
.............................. CYCLE   15 ..............................
........................................................................
   1    -22.3731819 -0.223732E+02  0.925E-01    2.41       0.0  T
   2    -22.3708885  0.229339E-02  0.693E-01    2.40       1.0  T
   3    -22.3726460 -0.175756E-02  0.521E-01    2.40       1.0  T
   4    -22.3753600 -0.271398E-02  0.102E-01    2.39       1.0  T
   5    -22.3755985 -0.238538E-03  0.225E-02    2.39       1.0  T
   6    -22.3756005 -0.196349E-05  0.113E-02    2.39       2.1  T
   7    -22.3756013 -0.774664E-06  0.305E-03    2.39       7.7  T
   8    -22.3756014 -0.982880E-07  0.125E-03    2.39      18.8  T
   9    -22.3756014 -0.924948E-08  0.521E-04    2.39      45.3  T
  10    -22.3756014 -0.281837E-09  0.247E-04    2.39      95.5  T
     SCC iter.                  ...        0 min,  0.174 sec
     gradient                   ...        0 min,  0.023 sec
 * total energy  :   -21.9757467 Eh     change       -0.8824423E-01 Eh
   gradient norm :     0.2382082 Eh/α   predicted    -0.1005939E+00 (  13.99%)
   displ. norm   :     0.6911113 α      lambda       -0.8105736E-01
   maximum displ.:     0.3344902 α      in ANC's #8, #2, #23, ...

........................................................................
.............................. CYCLE   16 ..............................
........................................................................
   1    -22.3819047 -0.223819E+02  0.115E+00    2.27       0.0  T
   2    -22.3802942  0.161054E-02  0.770E-01    2.26       1.0  T
   3    -22.3782682  0.202595E-02  0.741E-01    2.28       1.0  T
   4    -22.3849832 -0.671491E-02  0.191E-01    2.24       1.0  T
   5    -22.3855440 -0.560834E-03  0.316E-02    2.24       1.0  T
   6    -22.3855593 -0.153149E-04  0.131E-02    2.24       1.8  T
   7    -22.3855599 -0.577636E-06  0.522E-03    2.24       4.5  T
   8    -22.3855601 -0.240988E-06  0.144E-03    2.24      16.4  T
   9    -22.3855601 -0.108896E-07  0.528E-04    2.24      44.6  T
  10    -22.3855601 -0.210102E-08  0.297E-04    2.24      79.4  T
     SCC iter.                  ...        0 min,  0.178 sec
     gradient                   ...        0 min,  0.030 sec
 * total energy  :   -21.8998601 Eh     change        0.7588661E-01 Eh
   gradient norm :     0.7568365 Eh/α   predicted    -0.5988664E-01 (-178.92%)
   displ. norm   :     0.3797792 α      lambda       -0.1613606E+00
   maximum displ.:     0.2062599 α      in ANC's #3, #23, #1, ...

........................................................................
.............................. CYCLE   17 ..............................
........................................................................
   1    -22.4087291 -0.224087E+02  0.505E-01    2.44       0.0  T
   2    -22.4083823  0.346859E-03  0.364E-01    2.44       1.0  T
   3    -22.4089618 -0.579535E-03  0.280E-01    2.44       1.0  T
   4    -22.4097800 -0.818240E-03  0.917E-02    2.45       1.0  T
   5    -22.4098889 -0.108901E-03  0.201E-02    2.45       1.2  T
   6    -22.4098934 -0.446140E-05  0.817E-03    2.45       2.9  T
   7    -22.4098937 -0.329460E-06  0.285E-03    2.45       8.3  T
   8    -22.4098938 -0.368779E-07  0.126E-03    2.45      18.7  T
   9    -22.4098938 -0.154899E-07  0.322E-04    2.45      73.2  T
  10    -22.4098938  0.142784E-09  0.174E-04    2.45     135.8  T
     SCC iter.                  ...        0 min,  0.184 sec
     gradient                   ...        0 min,  0.008 sec
 * total energy  :   -21.9927954 Eh     change       -0.9293532E-01 Eh
   gradient norm :     0.2135516 Eh/α   predicted    -0.9231698E-01 (  -0.67%)
   displ. norm   :     0.5130412 α      lambda       -0.4985339E-01
   maximum displ.:     0.1786375 α      in ANC's #1, #3, #8, ...

........................................................................
.............................. CYCLE   18 ..............................
........................................................................
   1    -22.3656091 -0.223656E+02  0.601E-01    2.72       0.0  T
   2    -22.3657244 -0.115302E-03  0.365E-01    2.72       1.0  T
   3    -22.3646357  0.108874E-02  0.273E-01    2.72       1.0  T
   4    -22.3658295 -0.119385E-02  0.477E-02    2.72       1.0  T
   5    -22.3658687 -0.391707E-04  0.125E-02    2.72       1.9  T
   6    -22.3658699 -0.115871E-05  0.535E-03    2.72       4.4  T
   7    -22.3658700 -0.179065E-06  0.226E-03    2.72      10.4  T
   8    -22.3658701 -0.364068E-07  0.688E-04    2.72      34.3  T
   9    -22.3658701 -0.221514E-08  0.350E-04    2.72      67.3  T
     SCC iter.                  ...        0 min,  0.097 sec
     gradient                   ...        0 min,  0.006 sec
 * total energy  :   -21.9569168 Eh     change        0.3587858E-01 Eh
   gradient norm :     0.4258558 Eh/α   predicted    -0.3148764E-01 (-187.76%)
   displ. norm   :     0.3906871 α      lambda       -0.9199386E-01
   maximum displ.:     0.2447104 α      in ANC's #3, #8, #9, ...

........................................................................
.............................. CYCLE   19 ..............................
........................................................................
   1    -22.4047176 -0.224047E+02  0.551E-01    2.67       0.0  T
   2    -22.4047777 -0.601746E-04  0.320E-01    2.67       1.0  T
   3    -22.4046842  0.934862E-04  0.856E-02    2.67       1.0  T
   4    -22.4047757 -0.914121E-04  0.323E-02    2.67       1.0  T
   5    -22.4047920 -0.163057E-04  0.116E-02    2.67       2.0  T
   6    -22.4047939 -0.195256E-05  0.445E-03    2.67       5.3  T
   7    -22.4047941 -0.157683E-06  0.142E-03    2.67      16.6  T
   8    -22.4047941 -0.879884E-08  0.547E-04    2.67      43.1  T
   9    -22.4047941 -0.214031E-08  0.246E-04    2.67      96.0  T
     SCC iter.                  ...        0 min,  0.205 sec
     gradient                   ...        0 min,  0.007 sec
 * total energy  :   -22.0075731 Eh     change       -0.5065630E-01 Eh
   gradient norm :     0.0672584 Eh/α   predicted    -0.5301774E-01 (   4.66%)
   displ. norm   :     0.5450388 α      lambda       -0.1928509E-01
   maximum displ.:     0.2762823 α      in ANC's #3, #5, #8, ...

........................................................................
.............................. CYCLE   20 ..............................
........................................................................
   1    -22.4353905 -0.224354E+02  0.543E-01    2.79       0.0  T
   2    -22.4354389 -0.483178E-04  0.316E-01    2.79       1.0  T
   3    -22.4352480  0.190902E-03  0.114E-01    2.79       1.0  T
   4    -22.4354392 -0.191241E-03  0.356E-02    2.79       1.0  T
   5    -22.4354624 -0.231671E-04  0.924E-03    2.79       2.5  T
   6    -22.4354630 -0.586413E-06  0.341E-03    2.79       6.9  T
   7    -22.4354631 -0.101219E-06  0.125E-03    2.79      18.9  T
   8    -22.4354631 -0.109597E-07  0.471E-04    2.79      50.1  T
   9    -22.4354631 -0.387534E-09  0.176E-04    2.79     133.6  T
     SCC iter.                  ...        0 min,  0.164 sec
     gradient                   ...        0 min,  0.014 sec
 * total energy  :   -22.0051178 Eh     change        0.2455321E-02 Eh
   gradient norm :     0.2905317 Eh/α   predicted    -0.1250711E-01 (-609.39%)
   displ. norm   :     0.3785435 α      lambda       -0.2865933E-01
   maximum displ.:     0.3108459 α      in ANC's #3, #19, #15, ...
 * RMSD in coord.:     2.0161348 α      energy gain  -0.2647233E+02 Eh

generating ANC from model Hessian ...
Using Lindh-Hessian (1995)
 Shifting diagonal of input Hessian by    1.7917634906772974E-002
 Lowest  eigenvalues of input Hessian
    0.010000    0.014276    0.015354    0.000000    0.000000    0.000000
    0.000000    0.000000    0.000000    0.018064    0.027507    0.030726
    0.040599    0.047333    0.058604    0.070250    0.073702    0.077448
 Highest eigenvalues
    4.120291    4.231169    4.442407    4.644849    4.728479    6.102169


........................................................................
.............................. CYCLE   21 ..............................
........................................................................
   1    -22.4354266 -0.224354E+02  0.284E-01    2.88       0.0  T
   2    -22.4354897 -0.631441E-04  0.166E-01    2.88       1.0  T
   3    -22.4353187  0.170986E-03  0.114E-01    2.88       1.0  T
   4    -22.4354944 -0.175654E-03  0.418E-02    2.88       1.0  T
   5    -22.4355241 -0.296774E-04  0.868E-03    2.88       2.7  T
   6    -22.4355248 -0.743609E-06  0.362E-03    2.88       6.5  T
   7    -22.4355248 -0.331348E-07  0.135E-03    2.88      17.5  T
   8    -22.4355248 -0.992652E-08  0.430E-04    2.88      54.8  T
   9    -22.4355248 -0.128158E-08  0.171E-04    2.88     137.4  T
     SCC iter.                  ...        0 min,  0.168 sec
     gradient                   ...        0 min,  0.013 sec
 * total energy  :   -22.0165055 Eh     change       -0.1138773E-01 Eh
   gradient norm :     0.1748998 Eh/α   predicted     0.0000000E+00 (-100.00%)
   displ. norm   :     0.3685332 α      lambda       -0.2119843E-01
   maximum displ.:     0.1920713 α      in ANC's #6, #5, #2, ...

........................................................................
.............................. CYCLE   22 ..............................
........................................................................
   1    -22.4313178 -0.224313E+02  0.317E-01    3.03       0.0  T
   2    -22.4313747 -0.568372E-04  0.181E-01    3.03       1.0  T
   3    -22.4313381  0.365427E-04  0.822E-02    3.03       1.0  T
   4    -22.4313961 -0.579240E-04  0.107E-02    3.03       2.2  T
   5    -22.4313962 -0.154881E-06  0.830E-03    3.03       2.8  T
   6    -22.4313969 -0.678649E-06  0.372E-03    3.03       6.3  T
   7    -22.4313971 -0.178636E-06  0.953E-04    3.03      24.7  T
   8    -22.4313971 -0.566345E-08  0.444E-04    3.03      53.1  T
     SCC iter.                  ...        0 min,  0.167 sec
     gradient                   ...        0 min,  0.015 sec
 * total energy  :   -22.0301816 Eh     change       -0.1367610E-01 Eh
   gradient norm :     0.0345945 Eh/α   predicted    -0.1203877E-01 ( -11.97%)
   displ. norm   :     0.4211620 α      lambda       -0.6668178E-02
   maximum displ.:     0.2655392 α      in ANC's #6, #5, #2, ...

........................................................................
.............................. CYCLE   23 ..............................
........................................................................
   1    -22.4319394 -0.224319E+02  0.281E-01    3.19       0.0  T
   2    -22.4319904 -0.510110E-04  0.159E-01    3.19       1.0  T
   3    -22.4319630  0.273618E-04  0.710E-02    3.19       1.0  T
   4    -22.4320054 -0.423229E-04  0.137E-02    3.18       1.7  T
   5    -22.4320075 -0.217908E-05  0.693E-03    3.18       3.4  T
   6    -22.4320081 -0.516087E-06  0.232E-03    3.18      10.2  T
   7    -22.4320081 -0.443343E-07  0.799E-04    3.18      29.5  T
   8    -22.4320081 -0.556503E-08  0.345E-04    3.18      68.2  T
     SCC iter.                  ...        0 min,  0.203 sec
     gradient                   ...        0 min,  0.004 sec
 * total energy  :   -22.0348894 Eh     change       -0.4707727E-02 Eh
   gradient norm :     0.0594599 Eh/α   predicted    -0.3925474E-02 ( -16.62%)
   displ. norm   :     0.3946647 α      lambda       -0.4977872E-02
   maximum displ.:     0.2553885 α      in ANC's #6, #3, #5, ...

........................................................................
.............................. CYCLE   24 ..............................
........................................................................
   1    -22.4364452 -0.224364E+02  0.293E-01    3.37       0.0  T
   2    -22.4364778 -0.325947E-04  0.166E-01    3.37       1.0  T
   3    -22.4364528  0.249774E-04  0.574E-02    3.37       1.0  T
   4    -22.4364854 -0.325273E-04  0.128E-02    3.37       1.8  T
   5    -22.4364877 -0.233388E-05  0.481E-03    3.37       4.9  T
   6    -22.4364879 -0.168007E-06  0.188E-03    3.37      12.6  T
   7    -22.4364879 -0.325018E-07  0.577E-04    3.37      40.8  T
   8    -22.4364879 -0.319103E-08  0.269E-04    3.37      87.8  T
     SCC iter.                  ...        0 min,  0.207 sec
     gradient                   ...        0 min,  0.005 sec
 * total energy  :   -22.0383899 Eh     change       -0.3500588E-02 Eh
   gradient norm :     0.0565693 Eh/α   predicted    -0.2876629E-02 ( -17.82%)
   displ. norm   :     0.3515340 α      lambda       -0.3789214E-02
   maximum displ.:     0.2409638 α      in ANC's #6, #5, #3, ...

........................................................................
.............................. CYCLE   25 ..............................
........................................................................
   1    -22.4427433 -0.224427E+02  0.240E-01    3.50       0.0  T
   2    -22.4427551 -0.117391E-04  0.139E-01    3.50       1.0  T
   3    -22.4427044  0.506904E-04  0.578E-02    3.50       1.0  T
   4    -22.4427576 -0.531628E-04  0.160E-02    3.50       1.5  T
   5    -22.4427615 -0.395859E-05  0.377E-03    3.50       6.3  T
   6    -22.4427615 -0.291165E-07  0.148E-03    3.50      16.0  T
   7    -22.4427616 -0.159111E-07  0.468E-04    3.50      50.4  T
   8    -22.4427616 -0.122719E-08  0.263E-04    3.50      89.7  T
     SCC iter.                  ...        0 min,  0.166 sec
     gradient                   ...        0 min,  0.022 sec
 * total energy  :   -22.0406778 Eh     change       -0.2287904E-02 Eh
   gradient norm :     0.0364815 Eh/α   predicted    -0.2128767E-02 (  -6.96%)
   displ. norm   :     0.2716207 α      lambda       -0.1987258E-02
   maximum displ.:     0.1614114 α      in ANC's #3, #2, #6, ...

........................................................................
.............................. CYCLE   26 ..............................
........................................................................
   1    -22.4501578 -0.224502E+02  0.146E-01    3.60       0.0  T
   2    -22.4501838 -0.259575E-04  0.857E-02    3.60       1.0  T
   3    -22.4501750  0.873375E-05  0.467E-02    3.60       1.0  T
   4    -22.4501899 -0.148558E-04  0.153E-02    3.60       1.5  T
   5    -22.4501935 -0.358528E-05  0.416E-03    3.60       5.7  T
   6    -22.4501937 -0.210386E-06  0.176E-03    3.60      13.4  T
   7    -22.4501937 -0.156716E-07  0.577E-04    3.60      40.8  T
   8    -22.4501937 -0.272242E-08  0.167E-04    3.60     141.0  T
     SCC iter.                  ...        0 min,  0.174 sec
     gradient                   ...        0 min,  0.007 sec
 * total energy  :   -22.0410875 Eh     change       -0.4096194E-03 Eh
   gradient norm :     0.0385313 Eh/α   predicted    -0.1066934E-02 ( 160.47%)
   displ. norm   :     0.1161253 α      lambda       -0.9100081E-03
   maximum displ.:     0.0599949 α      in ANC's #2, #6, #5, ...

........................................................................
.............................. CYCLE   27 ..............................
........................................................................
   1    -22.4476654 -0.224477E+02  0.823E-02    3.60       0.0  T
   2    -22.4476665 -0.114538E-05  0.487E-02    3.60       1.0  T
   3    -22.4476429  0.236099E-04  0.397E-02    3.60       1.0  T
   4    -22.4476696 -0.267180E-04  0.456E-03    3.60       5.2  T
   5    -22.4476699 -0.247625E-06  0.204E-03    3.60      11.5  T
   6    -22.4476699 -0.291668E-07  0.805E-04    3.60      29.3  T
   7    -22.4476699 -0.289669E-08  0.305E-04    3.60      77.3  T
     SCC iter.                  ...        0 min,  0.137 sec
     gradient                   ...        0 min,  0.005 sec
 * total energy  :   -22.0414818 Eh     change       -0.3943823E-03 Eh
   gradient norm :     0.0179289 Eh/α   predicted    -0.4611384E-03 (  16.93%)
   displ. norm   :     0.0859589 α      lambda       -0.3053300E-03
   maximum displ.:     0.0561781 α      in ANC's #4, #1, #2, ...

........................................................................
.............................. CYCLE   28 ..............................
........................................................................
   1    -22.4477413 -0.224477E+02  0.572E-02    3.59       0.0  T
   2    -22.4477420 -0.760295E-06  0.341E-02    3.59       1.0  T
   3    -22.4477345  0.756810E-05  0.274E-02    3.59       1.0  T
   4    -22.4477437 -0.927117E-05  0.593E-03    3.59       4.0  T
   5    -22.4477444 -0.622365E-06  0.151E-03    3.59      15.6  T
   6    -22.4477444 -0.927447E-08  0.622E-04    3.59      37.9  T
   7    -22.4477444 -0.346150E-08  0.158E-04    3.59     149.5  T
     SCC iter.                  ...        0 min,  0.088 sec
     gradient                   ...        0 min,  0.007 sec
 * total energy  :   -22.0414605 Eh     change        0.2132269E-04 Eh
   gradient norm :     0.0224116 Eh/α   predicted    -0.1537924E-03 (-821.26%)
   displ. norm   :     0.0555714 α      lambda       -0.2661468E-03
   maximum displ.:     0.0305694 α      in ANC's #3, #1, #4, ...

........................................................................
.............................. CYCLE   29 ..............................
........................................................................
   1    -22.4484392 -0.224484E+02  0.413E-02    3.60       0.0  T
   2    -22.4484387  0.445898E-06  0.256E-02    3.60       1.0  T
   3    -22.4484330  0.569966E-05  0.235E-02    3.60       1.0  T
   4    -22.4484408 -0.781534E-05  0.260E-03    3.60       9.1  T
   5    -22.4484409 -0.105076E-06  0.874E-04    3.60      27.0  T
   6    -22.4484409 -0.257830E-08  0.347E-04    3.60      68.0  T
     SCC iter.                  ...        0 min,  0.196 sec
     gradient                   ...        0 min,  0.019 sec
 * total energy  :   -22.0415987 Eh     change       -0.1381991E-03 Eh
   gradient norm :     0.0081512 Eh/α   predicted    -0.1334831E-03 (  -3.41%)
   displ. norm   :     0.0604356 α      lambda       -0.6584702E-04
   maximum displ.:     0.0503819 α      in ANC's #3, #6, #1, ...

........................................................................
.............................. CYCLE   30 ..............................
........................................................................
   1    -22.4479789 -0.224480E+02  0.274E-02    3.61       0.0  T
   2    -22.4479795 -0.602533E-06  0.161E-02    3.61       1.5  T
   3    -22.4479790  0.508836E-06  0.820E-03    3.61       2.9  T
   4    -22.4479796 -0.633006E-06  0.276E-03    3.61       8.5  T
   5    -22.4479797 -0.128288E-06  0.656E-04    3.61      35.9  T
   6    -22.4479797 -0.325314E-08  0.361E-04    3.61      65.3  T
     SCC iter.                  ...        0 min,  0.145 sec
     gradient                   ...        0 min,  0.005 sec
 * total energy  :   -22.0416256 Eh     change       -0.2683583E-04 Eh
   gradient norm :     0.0050809 Eh/α   predicted    -0.3304421E-04 (  23.13%)
   displ. norm   :     0.0684319 α      lambda       -0.5979855E-04
   maximum displ.:     0.0571995 α      in ANC's #3, #2, #1, ...

........................................................................
.............................. CYCLE   31 ..............................
........................................................................
   1    -22.4481058 -0.224481E+02  0.324E-02    3.62       0.0  T
   2    -22.4481056  0.171643E-06  0.200E-02    3.62       1.2  T
   3    -22.4481023  0.332571E-05  0.185E-02    3.62       1.3  T
   4    -22.4481073 -0.497457E-05  0.243E-03    3.62       9.7  T
   5    -22.4481074 -0.961350E-07  0.567E-04    3.62      41.6  T
   6    -22.4481074 -0.200050E-08  0.264E-04    3.62      89.2  T
     SCC iter.                  ...        0 min,  0.126 sec
     gradient                   ...        0 min,  0.005 sec
 * total energy  :   -22.0416628 Eh     change       -0.3720627E-04 Eh
   gradient norm :     0.0081991 Eh/α   predicted    -0.3003915E-04 ( -19.26%)
   displ. norm   :     0.1355627 α      lambda       -0.1121137E-03
   maximum displ.:     0.0969849 α      in ANC's #3, #2, #6, ...

........................................................................
.............................. CYCLE   32 ..............................
........................................................................
   1    -22.4490198 -0.224490E+02  0.493E-02    3.61       0.0  T
   2    -22.4490210 -0.120864E-05  0.297E-02    3.61       1.0  T
   3    -22.4490168  0.418954E-05  0.167E-02    3.61       1.4  T
   4    -22.4490215 -0.472734E-05  0.542E-03    3.61       4.4  T
   5    -22.4490220 -0.457101E-06  0.108E-03    3.61      21.9  T
   6    -22.4490220 -0.701845E-08  0.565E-04    3.61      41.7  T
   7    -22.4490220 -0.158603E-08  0.121E-04    3.61     195.1  T
     SCC iter.                  ...        0 min,  0.156 sec
     gradient                   ...        0 min,  0.015 sec
 * total energy  :   -22.0416971 Eh     change       -0.3428964E-04 Eh
   gradient norm :     0.0076321 Eh/α   predicted    -0.5708747E-04 (  66.49%)
   displ. norm   :     0.0461450 α      lambda       -0.5050825E-04
   maximum displ.:     0.0436071 α      in ANC's #3, #4, #1, ...

........................................................................
.............................. CYCLE   33 ..............................
........................................................................
   1    -22.4484207 -0.224484E+02  0.210E-02    3.62       0.0  T
   2    -22.4484205  0.213159E-06  0.135E-02    3.62       1.7  T
   3    -22.4484200  0.460047E-06  0.119E-02    3.62       2.0  T
   4    -22.4484216 -0.162568E-05  0.184E-03    3.62      12.8  T
   5    -22.4484217 -0.473208E-07  0.407E-04    3.62      57.9  T
   6    -22.4484217 -0.142808E-08  0.212E-04    3.62     111.4  T
     SCC iter.                  ...        0 min,  0.126 sec
     gradient                   ...        0 min,  0.020 sec
 * total energy  :   -22.0417197 Eh     change       -0.2266715E-04 Eh
   gradient norm :     0.0059010 Eh/α   predicted    -0.2530822E-04 (  11.65%)
   displ. norm   :     0.0143777 α      lambda       -0.2024007E-04
   maximum displ.:     0.0073362 α      in ANC's #1, #13, #15, ...

........................................................................
.............................. CYCLE   34 ..............................
........................................................................
   1    -22.4485203 -0.224485E+02  0.155E-02    3.62       0.0  T
   2    -22.4485203 -0.715146E-07  0.885E-03    3.62       2.7  T
   3    -22.4485203  0.803993E-07  0.291E-03    3.62       8.1  T
   4    -22.4485204 -0.841846E-07  0.100E-03    3.62      23.5  T
   5    -22.4485204 -0.175158E-07  0.214E-04    3.62     110.2  T
   6    -22.4485204 -0.182666E-09  0.932E-05    3.62     252.9  T
     SCC iter.                  ...        0 min,  0.068 sec
     gradient                   ...        0 min,  0.018 sec
 * total energy  :   -22.0417312 Eh     change       -0.1143736E-04 Eh
   gradient norm :     0.0037002 Eh/α   predicted    -0.1012277E-04 ( -11.49%)
   displ. norm   :     0.0136707 α      lambda       -0.9220139E-05
   maximum displ.:     0.0074646 α      in ANC's #3, #2, #13, ...

........................................................................
.............................. CYCLE   35 ..............................
........................................................................
   1    -22.4486671 -0.224487E+02  0.947E-03    3.62       0.0  T
   2    -22.4486671 -0.133689E-07  0.550E-03    3.62       4.3  T
   3    -22.4486669  0.212145E-06  0.358E-03    3.62       6.6  T
   4    -22.4486672 -0.232873E-06  0.558E-04    3.62      42.2  T
   5    -22.4486672 -0.369388E-08  0.166E-04    3.62     142.0  T
     SCC iter.                  ...        0 min,  0.166 sec
     gradient                   ...        0 min,  0.005 sec
 * total energy  :   -22.0417373 Eh     change       -0.6161191E-05 Eh
   gradient norm :     0.0022798 Eh/α   predicted    -0.4611972E-05 ( -25.14%)
   displ. norm   :     0.0235128 α      lambda       -0.5752222E-05
   maximum displ.:     0.0196797 α      in ANC's #3, #2, #6, ...

........................................................................
.............................. CYCLE   36 ..............................
........................................................................
   1    -22.4486127 -0.224486E+02  0.114E-02    3.62       0.0  T
   2    -22.4486126  0.458240E-08  0.686E-03    3.62       3.4  T
   3    -22.4486122  0.426315E-06  0.632E-03    3.62       3.7  T
   4    -22.4486128 -0.599739E-06  0.959E-04    3.62      24.6  T
   5    -22.4486128 -0.123669E-07  0.271E-04    3.62      87.1  T
     SCC iter.                  ...        0 min,  0.095 sec
     gradient                   ...        0 min,  0.004 sec
 * total energy  :   -22.0417395 Eh     change       -0.2213670E-05 Eh
   gradient norm :     0.0015921 Eh/α   predicted    -0.2878700E-05 (  30.04%)
   displ. norm   :     0.0113439 α      lambda       -0.2359280E-05
   maximum displ.:     0.0064767 α      in ANC's #3, #5, #1, ...

........................................................................
.............................. CYCLE   37 ..............................
........................................................................
   1    -22.4486077 -0.224486E+02  0.794E-03    3.62       0.0  T
   2    -22.4486077  0.147351E-07  0.463E-03    3.62       5.1  T
   3    -22.4486075  0.244801E-06  0.454E-03    3.62       5.2  T
   4    -22.4486078 -0.306561E-06  0.331E-04    3.62      71.2  T
   5    -22.4486078 -0.150992E-08  0.133E-04    3.62     177.2  T
     SCC iter.                  ...        0 min,  0.126 sec
     gradient                   ...        0 min,  0.013 sec
 * total energy  :   -22.0417406 Eh     change       -0.1066147E-05 Eh
   gradient norm :     0.0015881 Eh/α   predicted    -0.1177589E-05 (  10.45%)
   displ. norm   :     0.0125575 α      lambda       -0.1316008E-05
   maximum displ.:     0.0094081 α      in ANC's #3, #2, #17, ...

........................................................................
.............................. CYCLE   38 ..............................
........................................................................
   1    -22.4486857 -0.224487E+02  0.492E-03    3.62       0.0  T
   2    -22.4486857 -0.138266E-07  0.294E-03    3.62       8.0  T
   3    -22.4486857  0.316917E-07  0.147E-03    3.62      16.0  T
   4    -22.4486857 -0.353493E-07  0.508E-04    3.62      46.4  T
   5    -22.4486857 -0.418310E-08  0.931E-05    3.62     253.2  T
     SCC iter.                  ...        0 min,  0.092 sec
     gradient                   ...        0 min,  0.011 sec
 * total energy  :   -22.0417419 Eh     change       -0.1252065E-05 Eh
   gradient norm :     0.0009719 Eh/α   predicted    -0.6590234E-06 ( -47.37%)
   displ. norm   :     0.0057625 α      lambda       -0.9381625E-06
   maximum displ.:     0.0030669 α      in ANC's #9, #12, #25, ...

   *** GEOMETRY OPTIMIZATION CONVERGED AFTER 38 ITERATIONS ***

------------------------------------------------------------------------
 total energy gain   :       -26.5089541 Eh   -16634.6199 kcal/mol
 total RMSD          :         2.1727152 a0        1.1498 Å
 total power (kW/mol):     -1831.5591975 (step)-7864.8839 (real)
------------------------------------------------------------------------

 ANCopt (total)                0 d,  0 h,  0 min,  8.849 sec
 optimizer setup                ...        0 min,  0.001 sec (  0.012%)
 model hessian                  ...        0 min,  0.039 sec (  0.441%)
 ANC generation                 ...        0 min,  0.023 sec (  0.258%)
 coordinate transformation      ...        0 min,  0.005 sec (  0.054%)
 single point calculation       ...        0 min,  8.628 sec ( 97.494%)
 optimization log               ...        0 min,  0.009 sec (  0.097%)
 hessian update                 ...        0 min,  0.030 sec (  0.341%)
 rational function              ...        0 min,  0.086 sec (  0.975%)

================
 final structure:
================
18
 xtb: 6.3.3 (7355c4f)
C        -0.40632157055329   -1.10809916528511    1.04813006875878
C         0.91089548178943   -0.90170329243865    0.95738643978332
C         1.15118411954533    0.52547127475408    0.93635315928207
C        -0.02461955949414    1.15446693476991    1.01432561339940
C        -1.11936183944077    0.17178141503650    0.77123548421637
C        -0.34570502857961    0.79279286178453    3.31002934379814
C        -0.58218503839666   -0.59543390286678    3.33073622372163
C         0.68110779704802   -0.08822651161797    3.77631036161659
H        -0.90539492489737   -2.06963368354000    1.01803164579015
H         1.69177504303030   -1.64674136392239    0.98975014508753
H         2.13394495204771    0.97406252085673    0.95065167831217
H        -0.18156499786926    2.22438283968001    0.95441654614726
H        -2.04486923742080    0.33662535014307    1.34993066421176
H        -1.39848274582224    0.20282445716260   -0.29658266105415
H        -0.78839437074776    1.76738444752327    3.42856620840314
H        -1.32048855621655   -1.36782080137421    3.47029025722698
H         0.97027454637423   -0.12164069640765    4.84693528480302
H         1.57820592960110   -0.25049068423715    3.14350553649014

 Bond Distances (Angstroems)
 ---------------------------
C1-C2=1.3364         C1-C5=1.4910         C1-H9=1.0838         C2-C1=1.3364         C2-C3=1.4474         C2-H10=1.0798        
C3-C2=1.4474         C3-C4=1.3358         C3-H11=1.0804        C4-C3=1.3358         C4-C5=1.4910         C4-H12=1.0830        
C5-C1=1.4910         C5-C4=1.4910         C5-H13=1.1039        C5-H14=1.1041        C6-C7=1.4084         C6-C8=1.4311         
C6-H15=1.0770        C7-C6=1.4084         C7-C8=1.4324         C7-H16=1.0776        C8-C6=1.4311         C8-C7=1.4324         
C8-H17=1.1095        C8-H18=1.1098        H9-C1=1.0838         H10-C2=1.0798        H11-C3=1.0804        H12-C4=1.0830        
H13-C5=1.1039        H14-C5=1.1041        H15-C6=1.0770        H16-C7=1.0776        H17-C8=1.1095        H18-C8=1.1098        
 C  H  Rav=1.0909 sigma=0.0133  Rmin=1.0770  Rmax=1.1098    10
 C  C  Rav=1.4217 sigma=0.0563  Rmin=1.3358  Rmax=1.4910     8

 selected bond angles (degree)
 --------------------
C5-C1-C2=109.04                H9-C1-C2=126.09                H9-C1-C5=122.43                C3-C2-C1=108.48                
H10-C2-C1=127.17               H10-C2-C3=124.11               C4-C3-C2=108.50                H11-C3-C2=124.07               
H11-C3-C4=127.19               C5-C4-C3=109.05                H12-C4-C3=126.12               H12-C4-C5=122.39               
C4-C5-C1=100.62                H13-C5-C1=115.58               H13-C5-C4=115.57               H14-C5-C1=108.94               
H14-C5-C4=108.95               H14-C5-H13=106.91              C8-C6-C7= 60.58                H15-C6-C7=145.22               
H15-C6-C8=144.71               C8-C7-C6= 60.49                H16-C7-C6=145.43               H16-C7-C8=144.87               
C7-C8-C6= 58.92                H17-C8-C6=121.33               H17-C8-C7=121.29               H18-C8-C6=118.96               
H18-C8-C7=118.93               H18-C8-H17=109.58              

 selected dihedral angles (degree)
 ---------------------------------
C3-C2-C1-C5= 13.15            C3-C2-C1-H9=175.60            H10-C2-C1-C5=187.61           H10-C2-C1-H9=350.05           
C4-C3-C2-C1=  0.00            C4-C3-C2-H10=185.32           H11-C3-C2-C1=174.69           H11-C3-C2-H10=  0.03          
C5-C4-C3-C2=346.87            C5-C4-C3-H11=172.37           H12-C4-C3-C2=184.39           H12-C4-C3-H11=  9.89          
C4-C5-C1-C2=340.26            C4-C5-C1-H9=177.05            H13-C5-C1-C2=215.04           H13-C5-C1-H9= 51.83           
H14-C5-C1-C2= 94.70           H14-C5-C1-H9=291.48           C1-C5-C4-C3= 19.73            C1-C5-C4-H12=183.00           
H13-C5-C4-C3=144.95           H13-C5-C4-H12=308.22          H14-C5-C4-C3=265.30           H14-C5-C4-H12= 68.57          
C8-C7-C6-H15=213.82           H16-C7-C6-C8=146.60           H16-C7-C6-H15=  0.42          C7-C8-C6-H15=146.67           
H17-C8-C6-C7=249.94           H17-C8-C6-H15= 36.60          H18-C8-C6-C7=108.18           H18-C8-C6-H15=254.85          
C6-C8-C7-H16=212.87           H17-C8-C7-C6=110.13           H17-C8-C7-H16=323.00          H18-C8-C7-C6=251.77           
H18-C8-C7-H16=104.64          

 CMA Distance (Angstroems)
 ---------------------------
R(CMA):  2.5677
           -------------------------------------------------
          |                Final Singlepoint                |
           -------------------------------------------------

          ...................................................
          :                      SETUP                      :
          :.................................................:
          :  # basis functions                  42          :
          :  # atomic orbitals                  42          :
          :  # shells                           26          :
          :  # electrons                        42          :
          :  max. iterations                   250          :
          :  Hamiltonian                  GFN2-xTB          :
          :  restarted?                      false          :
          :  GBSA solvation                  false          :
          :  PC potential                    false          :
          :  electronic temp.          300.0000000     K    :
          :  accuracy                    1.0000000          :
          :  -> integral cutoff          0.2500000E+02      :
          :  -> integral neglect         0.1000000E-07      :
          :  -> SCF convergence          0.1000000E-05 Eh   :
          :  -> wf. convergence          0.1000000E-03 e    :
          :  Broyden damping             0.4000000          :
          ...................................................

 iter      E             dE          RMSdq      gap      omega  full diag
   1    -22.4486857 -0.224487E+02  0.548E-05    3.62       0.0  T
   2    -22.4486857 -0.120792E-11  0.348E-05    3.62     676.8  T
   3    -22.4486857 -0.861533E-11  0.246E-05    3.62     956.9  T

   *** convergence criteria satisfied after 3 iterations ***

         #    Occupation            Energy/Eh            Energy/eV
      -------------------------------------------------------------
         1        2.0000           -0.6437031             -17.5161
       ...           ...                  ...                  ...
        15        2.0000           -0.4430759             -12.0567
        16        2.0000           -0.4376963             -11.9103
        17        2.0000           -0.4252626             -11.5720
        18        2.0000           -0.4191668             -11.4061
        19        2.0000           -0.4133451             -11.2477
        20        2.0000           -0.3806754             -10.3587
        21        2.0000           -0.3575270              -9.7288 (HOMO)
        22                         -0.2244024              -6.1063 (LUMO)
        23                         -0.2178212              -5.9272
        24                         -0.1328166              -3.6141
        25                          0.0146401               0.3984
        26                          0.0817999               2.2259
       ...                                ...                  ...
        42                          0.7157381              19.4762
      -------------------------------------------------------------
                  HL-Gap            0.1331246 Eh            3.6225 eV
             Fermi-level           -0.2909647 Eh           -7.9176 eV

 SCC (total)                   0 d,  0 h,  0 min,  0.109 sec
 SCC setup                      ...        0 min,  0.000 sec (  0.182%)
 Dispersion                     ...        0 min,  0.000 sec (  0.182%)
 classical contributions        ...        0 min,  0.000 sec (  0.076%)
 integral evaluation            ...        0 min,  0.012 sec ( 10.667%)
 iterations                     ...        0 min,  0.091 sec ( 83.451%)
 molecular gradient             ...        0 min,  0.005 sec (  4.573%)
 printout                       ...        0 min,  0.001 sec (  0.485%)

         :::::::::::::::::::::::::::::::::::::::::::::::::::::
         ::                     SUMMARY                     ::
         :::::::::::::::::::::::::::::::::::::::::::::::::::::
         :: total energy             -22.041741853284 Eh    ::
         :: gradient norm              0.000972328626 Eh/a0 ::
         :: HOMO-LUMO gap              3.622505786841 eV    ::
         ::.................................................::
         :: SCC energy               -22.448685707083 Eh    ::
         :: -> isotropic ES            0.002432859461 Eh    ::
         :: -> anisotropic ES          0.005143076062 Eh    ::
         :: -> anisotropic XC          0.017532634306 Eh    ::
         :: -> dispersion             -0.015287398527 Eh    ::
         :: repulsion energy           0.401598132406 Eh    ::
         :: add. restraining           0.005293683820 Eh    ::
         :: total charge              -0.000000000000 e     ::
         :::::::::::::::::::::::::::::::::::::::::::::::::::::

           -------------------------------------------------
          |                Property Printout                |
           -------------------------------------------------

    * Orbital Energies and Occupations

         #    Occupation            Energy/Eh            Energy/eV
      -------------------------------------------------------------
         1        2.0000           -0.6437031             -17.5161
       ...           ...                  ...                  ...
         9        2.0000           -0.5240091             -14.2590
        10        2.0000           -0.5136649             -13.9775
        11        2.0000           -0.5010896             -13.6353
        12        2.0000           -0.4748472             -12.9212
        13        2.0000           -0.4539986             -12.3539
        14        2.0000           -0.4509320             -12.2705
        15        2.0000           -0.4430759             -12.0567
        16        2.0000           -0.4376963             -11.9103
        17        2.0000           -0.4252626             -11.5720
        18        2.0000           -0.4191668             -11.4061
        19        2.0000           -0.4133451             -11.2477
        20        2.0000           -0.3806754             -10.3587
        21        2.0000           -0.3575270              -9.7288 (HOMO)
        22                         -0.2244024              -6.1063 (LUMO)
        23                         -0.2178212              -5.9272
        24                         -0.1328166              -3.6141
        25                          0.0146401               0.3984
        26                          0.0817999               2.2259
        27                          0.1029770               2.8021
        28                          0.1142974               3.1102
        29                          0.1188113               3.2330
        30                          0.1326552               3.6097
        31                          0.1449989               3.9456
        32                          0.1905487               5.1851
       ...                                ...                  ...
        42                          0.7157381              19.4762
      -------------------------------------------------------------
                  HL-Gap            0.1331246 Eh            3.6225 eV
             Fermi-level           -0.2909647 Eh           -7.9176 eV

     #   Z          covCN         q      C6AA      α(0)
     1   6 C        3.056    -0.028    28.654     8.779
     2   6 C        3.020    -0.037    28.900     8.818
     3   6 C        3.020    -0.037    28.896     8.818
     4   6 C        3.056    -0.028    28.652     8.778
     5   6 C        3.905    -0.060    21.589     6.604
     6   6 C        2.918    -0.044    29.097     8.846
     7   6 C        2.918    -0.044    29.104     8.847
     8   6 C        3.803    -0.031    21.131     6.544
     9   1 H        0.925     0.024     2.668     2.554
    10   1 H        0.926     0.026     2.647     2.544
    11   1 H        0.926     0.026     2.649     2.545
    12   1 H        0.925     0.025     2.666     2.553
    13   1 H        0.923     0.049     2.334     2.389
    14   1 H        0.923     0.058     2.224     2.332
    15   1 H        0.926     0.045     2.389     2.417
    16   1 H        0.926     0.045     2.387     2.416
    17   1 H        0.922    -0.002     3.098     2.753
    18   1 H        0.922     0.017     2.786     2.610

 Mol. C6AA /au·bohr⁶  :       3305.366327
 Mol. C8AA /au·bohr⁸  :      77664.858113
 Mol. α(0) /au        :         91.148597


Wiberg/Mayer (AO) data.
largest (>0.10) Wiberg bond orders for each atom

 ---------------------------------------------------------------------------
     #   Z sym  total        # sym  WBO       # sym  WBO       # sym  WBO
 ---------------------------------------------------------------------------
     1   6 C    3.988 --     2 C    1.632     5 C    1.026     9 H    0.972
                             7 C    0.215
     2   6 C    3.988 --     1 C    1.632     3 C    1.228    10 H    0.972
     3   6 C    3.988 --     4 C    1.632     2 C    1.228    11 H    0.972
     4   6 C    3.988 --     3 C    1.632     5 C    1.026    12 H    0.972
                             6 C    0.215
     5   6 C    3.997 --     1 C    1.026     4 C    1.026    13 H    0.962
                            14 H    0.926
     6   6 C    3.934 --     7 C    1.619     8 C    1.005    15 H    0.966
                             4 C    0.215
     7   6 C    3.933 --     6 C    1.619     8 C    1.004    16 H    0.966
                             1 C    0.215
     8   6 C    3.948 --     6 C    1.005     7 C    1.004    17 H    0.957
                            18 H    0.936
     9   1 H    0.999 --     1 C    0.972
    10   1 H    0.999 --     2 C    0.972
    11   1 H    0.999 --     3 C    0.972
    12   1 H    0.999 --     4 C    0.972
    13   1 H    0.998 --     5 C    0.962
    14   1 H    0.994 --     5 C    0.926
    15   1 H    0.998 --     6 C    0.966
    16   1 H    0.998 --     7 C    0.966
    17   1 H    0.998 --     8 C    0.957
    18   1 H    1.000 --     8 C    0.936
 ---------------------------------------------------------------------------

Topologies differ in total number of bonds
Writing topology from bond orders to xtbtopo.mol

molecular dipole:
                 x           y           z       tot (Debye)
 q only:       -0.296       0.048      -0.172
   full:       -0.361       0.059      -0.131       0.988
molecular quadrupole (traceless):
                xx          xy          yy          xz          yz          zz
 q only:        1.408      -0.076       0.943      -1.325       0.192      -2.351
  q+dip:        1.858       0.121       2.534      -2.138       0.273      -4.392
   full:        1.094       0.014       1.158      -1.985       0.298      -2.252

           -------------------------------------------------
          |                Geometry Summary                 |
           -------------------------------------------------

      molecular mass/u    :      106.1652947
   center of mass at/Å    :        0.0274636      -0.0050731       1.9018440
  moments of inertia/u·Å² :        0.1485888E+03   0.2440610E+03   0.2441514E+03
rotational constants/cm⁻¹ :        0.1134516E+00   0.6907139E-01   0.6904581E-01

 * 17 selected distances

     #   Z          #   Z                                           value/Å
     1   6 C        2   6 C                                       1.3363736
     3   6 C        4   6 C                                       1.3357506
     1   6 C        5   6 C                                       1.4910370
     4   6 C        5   6 C                                       1.4910481 (max)
     6   6 C        7   6 C                                       1.4083768
     6   6 C        8   6 C                                       1.4310687
     7   6 C        8   6 C                                       1.4323772
     1   6 C        9   1 H                                       1.0837568
     2   6 C       10   1 H                                       1.0797694
     3   6 C       11   1 H                                       1.0803969
     4   6 C       12   1 H                                       1.0830240
     5   6 C       13   1 H                                       1.1039138
     5   6 C       14   1 H                                       1.1041321
     6   6 C       15   1 H                                       1.0769650 (min)
     7   6 C       16   1 H                                       1.0775662
     8   6 C       17   1 H                                       1.1094916
     8   6 C       18   1 H                                       1.1097552

 * 2 distinct bonds (by element types)

   Z      Z             #   av. dist./Å        max./Å        min./Å
   1 H    6 C          10     1.0908771     1.1097552     1.0769650
   6 C    6 C           7     1.4180046     1.4910481     1.3357506


optimized geometry written to: xtbopt.xyz


           -------------------------------------------------
          | TOTAL ENERGY              -22.041741853284 Eh   |
          | GRADIENT NORM               0.000972328626 Eh/α |
          | HOMO-LUMO GAP               3.622505786841 eV   |
           -------------------------------------------------

------------------------------------------------------------------------
 * finished run on 2022/09/06 at 17:42:46.160     
------------------------------------------------------------------------
 total:
 * wall-time:     0 d,  0 h,  0 min,  9.324 sec
 *  cpu-time:     0 d,  0 h,  4 min, 48.595 sec
 * ratio c/w:    30.953 speedup
 SCF:
 * wall-time:     0 d,  0 h,  0 min,  0.256 sec
 *  cpu-time:     0 d,  0 h,  0 min,  7.068 sec
 * ratio c/w:    27.578 speedup
 ANC optimizer:
 * wall-time:     0 d,  0 h,  0 min,  8.961 sec
 *  cpu-time:     0 d,  0 h,  4 min, 36.307 sec
 * ratio c/w:    30.835 speedup

